 *******************************************************************************
 **                                                                           **
 **                              MOPAC v22.1.1                                **
 **                                                                           **
 *******************************************************************************
 **          Digital Object Identifier (DOI): 10.5281/zenodo.6511958          **
 **    Visit the DOI location for information on how to cite this program.    **
 *******************************************************************************

                              PM7 CALCULATION RESULTS

 *******************************************************************************
 *  CALCULATION DONE:                                Thu Aug 22 09:44:59 2024  *
 *  START_RES  - STARTING RESIDUE NUMBERS DEFINED
 *  Keyword:     START_RES=(1A 263B 428X 429X) 
 *  CHAINS     - PDB CHAIN LETTERS EXPLICITLY DEFINED
 *  Keyword:     CHAINS=(ABXX) 
 *  PDB        - INPUT GEOMETRY IS IN PDB FORMAT
 *  MOZYME     - USE LOCALIZED M.O.s IN SOLVING THE SCF EQUATIONS
 *  EPS=78.4   - USE ANDREAS KLAMT'S COSMO IMPLICIT SOLVATION MODEL
 *  1SCF       - DO 1 SCF AND THEN STOP 
 *  T=         - A TIME OF 172800.0 SECONDS REQUESTED
 *  DUMP=N     - RESTART FILE WRITTEN EVERY 7200.0 SECONDS REQUESTED
 *  AUX        - OUTPUT AUXILIARY INFORMATION
 *  VECTORS    - FINAL MOLECULAR ORBITALS TO BE PRINTED
 *  LARGE      - EXPANDED OUTPUT TO BE PRINTED
 *******************************************************************************
 START_RES=(1A 263B 428X 429X)  CHAINS=(ABXX) AUX LARGE MOZYME PDB VECTORS EPS=78.4 1SCF


   ATOM                 CHEMICAL                   X               Y               Z
  NUMBER                 SYMBOL               (ANGSTROMS)     (ANGSTROMS)     (ANGSTROMS)
 
     1       N(ATOM      1  N   HIE A   1)   54.85000000  *  44.32100000  *  81.24600000  *
     2       H(ATOM      2  H1  HIE A   1)   54.99200000  *  44.14500000  *  80.26200000  *
     3       H(ATOM      3  H2  HIE A   1)   55.46700000  *  45.07100000  *  81.52400000  *
     4       H(ATOM      4  H3  HIE A   1)   53.89600000  *  44.63900000  *  81.34700000  *
     5       C(ATOM      5  CA  HIE A   1)   55.15100000  *  43.12600000  *  82.06000000  *
     6       H(ATOM      6  HA  HIE A   1)   55.13900000  *  43.41800000  *  83.11000000  *
     7       C(ATOM      7  CB  HIE A   1)   54.09500000  *  42.04400000  *  81.84100000  *
     8       H(ATOM      8 HB2  HIE A   1)   53.11300000  *  42.48100000  *  82.02500000  *
     9       H(ATOM      9 HB3  HIE A   1)   54.13300000  *  41.72800000  *  80.79800000  *
    10       C(ATOM     10  CG  HIE A   1)   54.25600000  *  40.83500000  *  82.73200000  *
    11       N(ATOM     11 ND1  HIE A   1)   55.32200000  *  39.93200000  *  82.69200000  *
    12       C(ATOM     12 CE1  HIE A   1)   55.06200000  *  39.02100000  *  83.64500000  *
    13       H(ATOM     13 HE1  HIE A   1)   55.70200000  *  38.18800000  *  83.89400000  *
    14       N(ATOM     14 NE2  HIE A   1)   53.89800000  *  39.29500000  *  84.25700000  *
    15       H(ATOM     15 HE2  HIE A   1)   53.50400000  *  38.76400000  *  85.02000000  *
    16       C(ATOM     16 CD2  HIE A   1)   53.37200000  *  40.43300000  *  83.68900000  *
    17       H(ATOM     17 HD2  HIE A   1)   52.43800000  *  40.91500000  *  83.94200000  *
    18       C(ATOM     18  C   HIE A   1)   56.55500000  *  42.61500000  *  81.73000000  *
    19       O(ATOM     19  O   HIE A   1)   56.87800000  *  42.50100000  *  80.54400000  *
    20       N(ATOM     20  N   PRO A   2)   57.40100000  *  42.29500000  *  82.72800000  *
    21       C(ATOM     21  CD  PRO A   2)   57.09900000  *  42.29700000  *  84.15400000  *
    22       H(ATOM     22 HD2  PRO A   2)   56.22600000  *  41.68900000  *  84.39100000  *
    23       H(ATOM     23 HD3  PRO A   2)   56.93500000  *  43.32000000  *  84.49100000  *
    24       C(ATOM     24  CG  PRO A   2)   58.33300000  *  41.71800000  *  84.84000000  *
    25       H(ATOM     25 HG2  PRO A   2)   58.28200000  *  40.62900000  *  84.83800000  *
    26       H(ATOM     26 HG3  PRO A   2)   58.45200000  *  42.09800000  *  85.85400000  *
    27       C(ATOM     27  CB  PRO A   2)   59.45500000  *  42.18600000  *  83.91600000  *
    28       H(ATOM     28 HB2  PRO A   2)   60.35700000  *  41.58300000  *  84.02900000  *
    29       H(ATOM     29 HB3  PRO A   2)   59.68000000  *  43.23300000  *  84.12000000  *
    30       C(ATOM     30  CA  PRO A   2)   58.83200000  *  42.06700000  *  82.52100000  *
    31       H(ATOM     31  HA  PRO A   2)   59.23800000  *  42.86500000  *  81.89800000  *
    32       C(ATOM     32  C   PRO A   2)   59.19000000  *  40.73000000  *  81.85000000  *
    33       O(ATOM     33  O   PRO A   2)   60.27900000  *  40.61500000  *  81.28900000  *
    34       N(ATOM     34  N   GLU A   3)   58.32000000  *  39.71300000  *  81.84200000  *
    35       H(ATOM     35  H   GLU A   3)   57.42400000  *  39.82100000  *  82.29600000  *
    36       C(ATOM     36  CA  GLU A   3)   58.58300000  *  38.48400000  *  81.06700000  *
    37       H(ATOM     37  HA  GLU A   3)   59.60800000  *  38.16600000  *  81.25700000  *
    38       C(ATOM     38  CB  GLU A   3)   57.67200000  *  37.32800000  *  81.51200000  *
    39       H(ATOM     39 HB2  GLU A   3)   56.63800000  *  37.67400000  *  81.49500000  *
    40       H(ATOM     40 HB3  GLU A   3)   57.76300000  *  36.50900000  *  80.79900000  *
    41       C(ATOM     41  CG  GLU A   3)   57.99100000  *  36.78400000  *  82.91600000  *
    42       H(ATOM     42 HG2  GLU A   3)   58.04300000  *  37.60900000  *  83.62500000  *
    43       H(ATOM     43 HG3  GLU A   3)   57.16400000  *  36.14300000  *  83.22300000  *
    44       C(ATOM     44  CD  GLU A   3)   59.29600000  *  35.97100000  *  82.96000000  *
    45       O(ATOM     45 OE1  GLU A   3)   60.38500000  *  36.58000000  *  83.07400000  *
    46       O(ATOM     46 OE2  GLU A   3)   59.22600000  *  34.72000000  *  82.89400000  *
    47       C(ATOM     47  C   GLU A   3)   58.51200000  *  38.73400000  *  79.54800000  *
    48       O(ATOM     48  O   GLU A   3)   59.27700000  *  38.14200000  *  78.78800000  *
    49       N(ATOM     49  N   THR A   4)   57.69100000  *  39.68600000  *  79.08700000  *
    50       H(ATOM     50  H   THR A   4)   57.09400000  *  40.16600000  *  79.74500000  *
    51       C(ATOM     51  CA  THR A   4)   57.71800000  *  40.13300000  *  77.68100000  *
    52       H(ATOM     52  HA  THR A   4)   57.67800000  *  39.24800000  *  77.04600000  *
    53       C(ATOM     53  CB  THR A   4)   56.48100000  *  40.98200000  *  77.34500000  *
    54       H(ATOM     54  HB  THR A   4)   56.32900000  *  41.74300000  *  78.11000000  *
    55       C(ATOM     55 CG2  THR A   4)   56.53400000  *  41.65800000  *  75.97500000  *
    56       H(ATOM     56 HG21 THR A   4)   56.76100000  *  40.92400000  *  75.20200000  *
    57       H(ATOM     57 HG22 THR A   4)   55.56700000  *  42.11500000  *  75.76100000  *
    58       H(ATOM     58 HG23 THR A   4)   57.29100000  *  42.44200000  *  75.97100000  *
    59       O(ATOM     59 OG1  THR A   4)   55.35700000  *  40.13200000  *  77.29000000  *
    60       H(ATOM     60 HG1  THR A   4)   55.24100000  *  39.68700000  *  78.13200000  *
    61       C(ATOM     61  C   THR A   4)   59.03300000  *  40.83600000  *  77.31600000  *
    62       O(ATOM     62  O   THR A   4)   59.51300000  *  40.68800000  *  76.19400000  *
    63       N(ATOM     63  N   LEU A   5)   59.70100000  *  41.50900000  *  78.26000000  *
    64       H(ATOM     64  H   LEU A   5)   59.30000000  *  41.58500000  *  79.18400000  *
    65       C(ATOM     65  CA  LEU A   5)   61.04800000  *  42.05700000  *  78.03400000  *
    66       H(ATOM     66  HA  LEU A   5)   61.03700000  *  42.59900000  *  77.08700000  *
    67       C(ATOM     67  CB  LEU A   5)   61.42700000  *  43.07200000  *  79.13100000  *
    68       H(ATOM     68 HB2  LEU A   5)   61.10400000  *  42.71000000  *  80.10700000  *
    69       H(ATOM     69 HB3  LEU A   5)   62.51400000  *  43.14900000  *  79.15500000  *
    70       C(ATOM     70  CG  LEU A   5)   60.87400000  *  44.49300000  *  78.89500000  *
    71       H(ATOM     71  HG  LEU A   5)   61.24300000  *  44.85600000  *  77.93500000  *
    72       C(ATOM     72 CD1  LEU A   5)   59.34800000  *  44.57000000  *  78.88600000  *
    73       H(ATOM     73 HD11 LEU A   5)   58.94400000  *  44.16500000  *  79.81500000  *
    74       H(ATOM     74 HD12 LEU A   5)   59.04200000  *  45.61200000  *  78.79100000  *
    75       H(ATOM     75 HD13 LEU A   5)   58.94200000  *  44.02700000  *  78.03200000  *
    76       C(ATOM     76 CD2  LEU A   5)   61.38200000  *  45.43300000  *  79.98800000  *
    77       H(ATOM     77 HD21 LEU A   5)   62.47200000  *  45.42800000  *  80.00800000  *
    78       H(ATOM     78 HD22 LEU A   5)   61.04200000  *  46.44900000  *  79.79100000  *
    79       H(ATOM     79 HD23 LEU A   5)   60.99900000  *  45.12100000  *  80.95900000  *
    80       C(ATOM     80  C   LEU A   5)   62.10500000  *  40.94900000  *  77.85800000  *
    81       O(ATOM     81  O   LEU A   5)   63.07700000  *  41.14800000  *  77.13000000  *
    82       N(ATOM     82  N   VAL A   6)   61.89900000  *  39.75000000  *  78.41900000  *
    83       H(ATOM     83  H   VAL A   6)   61.09200000  *  39.62600000  *  79.01500000  *
    84       C(ATOM     84  CA  VAL A   6)   62.73000000  *  38.57200000  *  78.09800000  *
    85       H(ATOM     85  HA  VAL A   6)   63.77400000  *  38.87200000  *  78.19000000  *
    86       C(ATOM     86  CB  VAL A   6)   62.51300000  *  37.40200000  *  79.08200000  *
    87       H(ATOM     87  HB  VAL A   6)   61.51200000  *  36.99300000  *  78.94800000  *
    88       C(ATOM     88 CG1  VAL A   6)   63.52000000  *  36.27000000  *  78.84200000  *
    89       H(ATOM     89 HG11 VAL A   6)   64.53900000  *  36.64400000  *  78.94100000  *
    90       H(ATOM     90 HG12 VAL A   6)   63.35800000  *  35.47700000  *  79.57200000  *
    91       H(ATOM     91 HG13 VAL A   6)   63.38600000  *  35.84500000  *  77.84700000  *
    92       C(ATOM     92 CG2  VAL A   6)   62.67000000  *  37.85400000  *  80.53800000  *
    93       H(ATOM     93 HG21 VAL A   6)   61.91200000  *  38.59800000  *  80.78500000  *
    94       H(ATOM     94 HG22 VAL A   6)   62.53100000  *  37.00500000  *  81.20700000  *
    95       H(ATOM     95 HG23 VAL A   6)   63.65800000  *  38.28500000  *  80.69900000  *
    96       C(ATOM     96  C   VAL A   6)   62.52700000  *  38.12900000  *  76.64200000  *
    97       O(ATOM     97  O   VAL A   6)   63.49900000  *  37.78900000  *  75.96900000  *
    98       N(ATOM     98  N   LYS A   7)   61.30300000  *  38.22500000  *  76.09800000  *
    99       H(ATOM     99  H   LYS A   7)   60.54100000  *  38.50900000  *  76.69600000  *
   100       C(ATOM    100  CA  LYS A   7)   61.04200000  *  38.02100000  *  74.65800000  *
   101       H(ATOM    101  HA  LYS A   7)   61.55100000  *  37.09900000  *  74.37800000  *
   102       C(ATOM    102  CB  LYS A   7)   59.53000000  *  37.82100000  *  74.40900000  *
   103       H(ATOM    103 HB2  LYS A   7)   59.16400000  *  37.02000000  *  75.05200000  *
   104       H(ATOM    104 HB3  LYS A   7)   58.99700000  *  38.73200000  *  74.68300000  *
   105       C(ATOM    105  CG  LYS A   7)   59.16200000  *  37.48500000  *  72.95100000  *
   106       H(ATOM    106 HG2  LYS A   7)   58.07500000  *  37.47900000  *  72.86200000  *
   107       H(ATOM    107 HG3  LYS A   7)   59.52300000  *  38.29200000  *  72.31300000  *
   108       C(ATOM    108  CD  LYS A   7)   59.69300000  *  36.13300000  *  72.43700000  *
   109       H(ATOM    109 HD2  LYS A   7)   60.51700000  *  35.77300000  *  73.05400000  *
   110       H(ATOM    110 HD3  LYS A   7)   58.89000000  *  35.39600000  *  72.47100000  *
   111       C(ATOM    111  CE  LYS A   7)   60.19500000  *  36.28800000  *  70.99800000  *
   112       H(ATOM    112 HE2  LYS A   7)   59.39900000  *  36.69300000  *  70.37400000  *
   113       H(ATOM    113 HE3  LYS A   7)   61.01400000  *  37.00800000  *  71.00100000  *
   114       N(ATOM    114  NZ  LYS A   7)   60.67700000  *  35.01400000  *  70.42200000  *
   115       H(ATOM    115 HZ1  LYS A   7)   59.92400000  *  34.39400000  *  70.15900000  *
   116       H(ATOM    116 HZ2  LYS A   7)   61.14100000  *  35.22100000  *  69.54900000  *
   117       H(ATOM    117 HZ3  LYS A   7)   61.35400000  *  34.55800000  *  71.01700000  *
   118       C(ATOM    118  C   LYS A   7)   61.67700000  *  39.11300000  *  73.77500000  *
   119       O(ATOM    119  O   LYS A   7)   62.09500000  *  38.81600000  *  72.65600000  *
   120       N(ATOM    120  N   VAL A   8)   61.82800000  *  40.34600000  *  74.27200000  *
   121       H(ATOM    121  H   VAL A   8)   61.39100000  *  40.54900000  *  75.15900000  *
   122       C(ATOM    122  CA  VAL A   8)   62.63100000  *  41.39400000  *  73.60400000  *
   123       H(ATOM    123  HA  VAL A   8)   62.33300000  *  41.42200000  *  72.55500000  *
   124       C(ATOM    124  CB  VAL A   8)   62.35900000  *  42.80100000  *  74.17900000  *
   125       H(ATOM    125  HB  VAL A   8)   62.61500000  *  42.81800000  *  75.23900000  *
   126       C(ATOM    126 CG1  VAL A   8)   63.18700000  *  43.87900000  *  73.47100000  *
   127       H(ATOM    127 HG11 VAL A   8)   63.00800000  *  43.84700000  *  72.39600000  *
   128       H(ATOM    128 HG12 VAL A   8)   62.91200000  *  44.86600000  *  73.84400000  *
   129       H(ATOM    129 HG13 VAL A   8)   64.25000000  *  43.73200000  *  73.66000000  *
   130       C(ATOM    130 CG2  VAL A   8)   60.88300000  *  43.20000000  *  74.03000000  *
   131       H(ATOM    131 HG21 VAL A   8)   60.23500000  *  42.47500000  *  74.52300000  *
   132       H(ATOM    132 HG22 VAL A   8)   60.71600000  *  44.17200000  *  74.49500000  *
   133       H(ATOM    133 HG23 VAL A   8)   60.61400000  *  43.25700000  *  72.97500000  *
   134       C(ATOM    134  C   VAL A   8)   64.13100000  *  41.04900000  *  73.60900000  *
   135       O(ATOM    135  O   VAL A   8)   64.76500000  *  41.11400000  *  72.55700000  *
   136       N(ATOM    136  N   LYS A   9)   64.69500000  *  40.59800000  *  74.74400000  *
   137       H(ATOM    137  H   LYS A   9)   64.13600000  *  40.60600000  *  75.58600000  *
   138       C(ATOM    138  CA  LYS A   9)   66.07700000  *  40.06900000  *  74.80900000  *
   139       H(ATOM    139  HA  LYS A   9)   66.76700000  *  40.85500000  *  74.50300000  *
   140       C(ATOM    140  CB  LYS A   9)   66.44600000  *  39.61100000  *  76.23300000  *
   141       H(ATOM    141 HB2  LYS A   9)   65.64200000  *  38.99900000  *  76.64200000  *
   142       H(ATOM    142 HB3  LYS A   9)   67.33800000  *  38.98800000  *  76.16100000  *
   143       C(ATOM    143  CG  LYS A   9)   66.75000000  *  40.76600000  *  77.20100000  *
   144       H(ATOM    144 HG2  LYS A   9)   67.61000000  *  41.32300000  *  76.82900000  *
   145       H(ATOM    145 HG3  LYS A   9)   65.89400000  *  41.44000000  *  77.23600000  *
   146       C(ATOM    146  CD  LYS A   9)   67.04800000  *  40.28000000  *  78.63300000  *
   147       H(ATOM    147 HD2  LYS A   9)   67.26400000  *  41.15100000  *  79.25200000  *
   148       H(ATOM    148 HD3  LYS A   9)   66.15700000  *  39.79500000  *  79.03200000  *
   149       C(ATOM    149  CE  LYS A   9)   68.23500000  *  39.30300000  *  78.70900000  *
   150       H(ATOM    150 HE2  LYS A   9)   67.99600000  *  38.41800000  *  78.11800000  *
   151       H(ATOM    151 HE3  LYS A   9)   69.11300000  *  39.77600000  *  78.26900000  *
   152       N(ATOM    152  NZ  LYS A   9)   68.52600000  *  38.89700000  *  80.10600000  *
   153       H(ATOM    153 HZ1  LYS A   9)   67.69400000  *  38.57800000  *  80.58100000  *
   154       H(ATOM    154 HZ2  LYS A   9)   69.20700000  *  38.15200000  *  80.14900000  *
   155       H(ATOM    155 HZ3  LYS A   9)   68.89800000  *  39.66700000  *  80.64300000  *
   156       C(ATOM    156  C   LYS A   9)   66.30200000  *  38.91200000  *  73.82900000  *
   157       O(ATOM    157  O   LYS A   9)   67.31600000  *  38.89800000  *  73.13400000  *
   158       N(ATOM    158  N   ASP A  10)   65.36600000  *  37.96300000  *  73.76200000  *
   159       H(ATOM    159  H   ASP A  10)   64.60700000  *  38.01000000  *  74.42700000  *
   160       C(ATOM    160  CA  ASP A  10)   65.36500000  *  36.86600000  *  72.78700000  *
   161       H(ATOM    161  HA  ASP A  10)   66.23700000  *  36.24200000  *  72.98200000  *
   162       C(ATOM    162  CB  ASP A  10)   64.10300000  *  36.00100000  *  72.99700000  *
   163       H(ATOM    163 HB2  ASP A  10)   64.11100000  *  35.61200000  *  74.01500000  *
   164       H(ATOM    164 HB3  ASP A  10)   63.21800000  *  36.62600000  *  72.88400000  *
   165       C(ATOM    165  CG  ASP A  10)   63.96700000  *  34.81900000  *  72.03000000  *
   166       O(ATOM    166 OD1  ASP A  10)   62.85200000  *  34.26500000  *  71.91600000  *
   167       O(ATOM    167 OD2  ASP A  10)   64.97500000  *  34.43600000  *  71.39900000  *
   168       C(ATOM    168  C   ASP A  10)   65.47900000  *  37.38300000  *  71.33900000  *
   169       O(ATOM    169  O   ASP A  10)   66.34800000  *  36.92600000  *  70.58700000  *
   170       N(ATOM    170  N   ALA A  11)   64.63000000  *  38.35100000  *  70.97400000  *
   171       H(ATOM    171  H   ALA A  11)   63.95600000  *  38.67100000  *  71.65400000  *
   172       C(ATOM    172  CA  ALA A  11)   64.59000000  *  38.97700000  *  69.65400000  *
   173       H(ATOM    173  HA  ALA A  11)   64.39800000  *  38.19400000  *  68.92100000  *
   174       C(ATOM    174  CB  ALA A  11)   63.41300000  *  39.95800000  *  69.60800000  *
   175       H(ATOM    175 HB1  ALA A  11)   63.57000000  *  40.77200000  *  70.31600000  *
   176       H(ATOM    176 HB2  ALA A  11)   63.32800000  *  40.38000000  *  68.60600000  *
   177       H(ATOM    177 HB3  ALA A  11)   62.48800000  *  39.43900000  *  69.86100000  *
   178       C(ATOM    178  C   ALA A  11)   65.90900000  *  39.66000000  *  69.24100000  *
   179       O(ATOM    179  O   ALA A  11)   66.34100000  *  39.46800000  *  68.10300000  *
   180       N(ATOM    180  N   GLU A  12)   66.55900000  *  40.42200000  *  70.13300000  *
   181       H(ATOM    181  H   GLU A  12)   66.13900000  *  40.56400000  *  71.04000000  *
   182       C(ATOM    182  CA  GLU A  12)   67.84500000  *  41.08700000  *  69.83600000  *
   183       H(ATOM    183  HA  GLU A  12)   67.69100000  *  41.77900000  *  69.00800000  *
   184       C(ATOM    184  CB  GLU A  12)   68.37900000  *  41.88900000  *  71.03600000  *
   185       H(ATOM    185 HB2  GLU A  12)   68.44800000  *  41.24800000  *  71.91500000  *
   186       H(ATOM    186 HB3  GLU A  12)   69.39000000  *  42.19800000  *  70.77100000  *
   187       C(ATOM    187  CG  GLU A  12)   67.54600000  *  43.13700000  *  71.37400000  *
   188       H(ATOM    188 HG2  GLU A  12)   66.92100000  *  43.38700000  *  70.51800000  *
   189       H(ATOM    189 HG3  GLU A  12)   66.88400000  *  42.90500000  *  72.20900000  *
   190       C(ATOM    190  CD  GLU A  12)   68.39000000  *  44.37600000  *  71.72100000  *
   191       O(ATOM    191 OE1  GLU A  12)   67.85100000  *  45.50100000  *  71.66000000  *
   192       O(ATOM    192 OE2  GLU A  12)   69.59700000  *  44.28900000  *  72.05600000  *
   193       C(ATOM    193  C   GLU A  12)   68.93800000  *  40.11000000  *  69.38200000  *
   194       O(ATOM    194  O   GLU A  12)   69.69600000  *  40.41300000  *  68.45500000  *
   195       N(ATOM    195  N   ASP A  13)   69.02800000  *  38.94200000  *  70.02600000  *
   196       H(ATOM    196  H   ASP A  13)   68.41100000  *  38.78100000  *  70.81000000  *
   197       C(ATOM    197  CA  ASP A  13)   69.92300000  *  37.86600000  *  69.59400000  *
   198       H(ATOM    198  HA  ASP A  13)   70.93600000  *  38.26600000  *  69.55100000  *
   199       C(ATOM    199  CB  ASP A  13)   69.93600000  *  36.69500000  *  70.59600000  *
   200       H(ATOM    200 HB2  ASP A  13)   68.92900000  *  36.28500000  *  70.66200000  *
   201       H(ATOM    201 HB3  ASP A  13)   70.57800000  *  35.91300000  *  70.19000000  *
   202       C(ATOM    202  CG  ASP A  13)   70.43300000  *  37.00800000  *  72.01700000  *
   203       O(ATOM    203 OD1  ASP A  13)   71.04100000  *  38.07600000  *  72.26600000  *
   204       O(ATOM    204 OD2  ASP A  13)   70.21300000  *  36.13600000  *  72.89100000  *
   205       C(ATOM    205  C   ASP A  13)   69.57500000  *  37.36700000  *  68.17700000  *
   206       O(ATOM    206  O   ASP A  13)   70.46400000  *  37.28000000  *  67.33000000  *
   207       N(ATOM    207  N   GLN A  14)   68.30100000  *  37.05500000  *  67.88500000  *
   208       H(ATOM    208  H   GLN A  14)   67.59600000  *  37.23200000  *  68.58600000  *
   209       C(ATOM    209  CA  GLN A  14)   67.89000000  *  36.53000000  *  66.56600000  *
   210       H(ATOM    210  HA  GLN A  14)   68.50000000  *  35.65300000  *  66.34800000  *
   211       C(ATOM    211  CB  GLN A  14)   66.40800000  *  36.09900000  *  66.54100000  *
   212       H(ATOM    212 HB2  GLN A  14)   65.77500000  *  36.98200000  *  66.63300000  *
   213       H(ATOM    213 HB3  GLN A  14)   66.21500000  *  35.66000000  *  65.56200000  *
   214       C(ATOM    214  CG  GLN A  14)   65.96000000  *  35.08400000  *  67.60300000  *
   215       H(ATOM    215 HG2  GLN A  14)   65.77600000  *  35.60900000  *  68.54100000  *
   216       H(ATOM    216 HG3  GLN A  14)   65.01500000  *  34.64200000  *  67.28800000  *
   217       C(ATOM    217  CD  GLN A  14)   66.96200000  *  33.96700000  *  67.85500000  *
   218       O(ATOM    218 OE1  GLN A  14)   67.66900000  *  33.96000000  *  68.85600000  *
   219       N(ATOM    219 NE2  GLN A  14)   67.09500000  *  33.00400000  *  66.97500000  *
   220       H(ATOM    220 HE21 GLN A  14)   67.73600000  *  32.25000000  *  67.17700000  *
   221       H(ATOM    221 HE22 GLN A  14)   66.50400000  *  32.97600000  *  66.15700000  *
   222       C(ATOM    222  C   GLN A  14)   68.14400000  *  37.52800000  *  65.42600000  *
   223       O(ATOM    223  O   GLN A  14)   68.76500000  *  37.18900000  *  64.41600000  *
   224       N(ATOM    224  N   LEU A  15)   67.68600000  *  38.77300000  *  65.59700000  *
   225       H(ATOM    225  H   LEU A  15)   67.21900000  *  38.98900000  *  66.46700000  *
   226       C(ATOM    226  CA  LEU A  15)   67.83600000  *  39.84900000  *  64.61200000  *
   227       H(ATOM    227  HA  LEU A  15)   67.53100000  *  39.47900000  *  63.63300000  *
   228       C(ATOM    228  CB  LEU A  15)   66.93700000  *  41.04300000  *  64.99700000  *
   229       H(ATOM    229 HB2  LEU A  15)   66.92600000  *  41.17000000  *  66.08000000  *
   230       H(ATOM    230 HB3  LEU A  15)   67.37200000  *  41.94900000  *  64.57500000  *
   231       C(ATOM    231  CG  LEU A  15)   65.50000000  *  40.94500000  *  64.46000000  *
   232       H(ATOM    232  HG  LEU A  15)   65.54000000  *  40.80900000  *  63.37900000  *
   233       C(ATOM    233 CD1  LEU A  15)   64.68500000  *  39.80400000  *  65.05600000  *
   234       H(ATOM    234 HD11 LEU A  15)   64.61400000  *  39.92400000  *  66.13700000  *
   235       H(ATOM    235 HD12 LEU A  15)   63.68600000  *  39.80200000  *  64.61900000  *
   236       H(ATOM    236 HD13 LEU A  15)   65.15700000  *  38.84900000  *  64.82700000  *
   237       C(ATOM    237 CD2  LEU A  15)   64.75500000  *  42.24400000  *  64.76000000  *
   238       H(ATOM    238 HD21 LEU A  15)   65.28000000  *  43.07800000  *  64.29500000  *
   239       H(ATOM    239 HD22 LEU A  15)   63.74000000  *  42.19700000  *  64.36600000  *
   240       H(ATOM    240 HD23 LEU A  15)   64.71600000  *  42.40800000  *  65.83700000  *
   241       C(ATOM    241  C   LEU A  15)   69.29200000  *  40.31000000  *  64.46400000  *
   242       O(ATOM    242  O   LEU A  15)   69.60800000  *  41.00400000  *  63.49400000  *
   243       N(ATOM    243  N   GLY A  16)   70.15800000  *  39.97600000  *  65.42400000  *
   244       H(ATOM    244  H   GLY A  16)   69.83300000  *  39.40600000  *  66.19200000  *
   245       C(ATOM    245  CA  GLY A  16)   71.52200000  *  40.48100000  *  65.48600000  *
   246       H(ATOM    246 HA2  GLY A  16)   72.02500000  *  40.06000000  *  66.35600000  *
   247       H(ATOM    247 HA3  GLY A  16)   72.05900000  *  40.16100000  *  64.59400000  *
   248       C(ATOM    248  C   GLY A  16)   71.57200000  *  42.00900000  *  65.56100000  *
   249       O(ATOM    249  O   GLY A  16)   72.46300000  *  42.60300000  *  64.95400000  *
   250       N(ATOM    250  N   ALA A  17)   70.63400000  *  42.65200000  *  66.27100000  *
   251       H(ATOM    251  H   ALA A  17)   69.97700000  *  42.09900000  *  66.80100000  *
   252       C(ATOM    252  CA  ALA A  17)   70.44900000  *  44.10900000  *  66.29300000  *
   253       H(ATOM    253  HA  ALA A  17)   71.40800000  *  44.57600000  *  66.51700000  *
   254       C(ATOM    254  CB  ALA A  17)   69.98500000  *  44.57700000  *  64.90500000  *
   255       H(ATOM    255 HB1  ALA A  17)   69.03300000  *  44.10200000  *  64.66700000  *
   256       H(ATOM    256 HB2  ALA A  17)   69.85700000  *  45.65900000  *  64.89700000  *
   257       H(ATOM    257 HB3  ALA A  17)   70.72800000  *  44.31800000  *  64.15100000  *
   258       C(ATOM    258  C   ALA A  17)   69.43400000  *  44.57800000  *  67.35400000  *
   259       O(ATOM    259  O   ALA A  17)   68.63700000  *  43.79400000  *  67.86800000  *
   260       N(ATOM    260  N   ARG A  18)   69.46200000  *  45.88700000  *  67.64600000  *
   261       H(ATOM    261  H   ARG A  18)   70.16200000  *  46.43700000  *  67.17000000  *
   262       C(ATOM    262  CA  ARG A  18)   68.59000000  *  46.58000000  *  68.61200000  *
   263       H(ATOM    263  HA  ARG A  18)   68.82500000  *  46.19900000  *  69.60500000  *
   264       C(ATOM    264  CB  ARG A  18)   68.86000000  *  48.09400000  *  68.58400000  *
   265       H(ATOM    265 HB2  ARG A  18)   68.54900000  *  48.48300000  *  67.61400000  *
   266       H(ATOM    266 HB3  ARG A  18)   68.24100000  *  48.56100000  *  69.35000000  *
   267       C(ATOM    267  CG  ARG A  18)   70.32200000  *  48.49300000  *  68.83200000  *
   268       H(ATOM    268 HG2  ARG A  18)   70.67000000  *  48.02500000  *  69.75400000  *
   269       H(ATOM    269 HG3  ARG A  18)   70.94700000  *  48.15500000  *  68.00600000  *
   270       C(ATOM    270  CD  ARG A  18)   70.45500000  *  50.01400000  *  68.97500000  *
   271       H(ATOM    271 HD2  ARG A  18)   69.85700000  *  50.31000000  *  69.83700000  *
   272       H(ATOM    272 HD3  ARG A  18)   71.49700000  *  50.25900000  *  69.18200000  *
   273       N(ATOM    273  NE  ARG A  18)   70.01200000  *  50.74200000  *  67.76300000  *
   274       H(ATOM    274  HE  ARG A  18)   70.22000000  *  50.31000000  *  66.87400000  *
   275       C(ATOM    275  CZ  ARG A  18)   69.35000000  *  51.88900000  *  67.73700000  *
   276       N(ATOM    276 NH1  ARG A  18)   69.05700000  *  52.57100000  *  68.79800000  *
   277       H(ATOM    277 HH11 ARG A  18)   69.41000000  *  52.28900000  *  69.70200000  *
   278       H(ATOM    278 HH12 ARG A  18)   68.50700000  *  53.41300000  *  68.70600000  *
   279       N(ATOM    279 NH2  ARG A  18)   68.94900000  *  52.41400000  *  66.61700000  *
   280       H(ATOM    280 HH21 ARG A  18)   69.14300000  *  51.97200000  *  65.73000000  *
   281       H(ATOM    281 HH22 ARG A  18)   68.45000000  *  53.29000000  *  66.67200000  *
   282       C(ATOM    282  C   ARG A  18)   67.09200000  *  46.36600000  *  68.35900000  *
   283       O(ATOM    283  O   ARG A  18)   66.64500000  *  46.46900000  *  67.21400000  *
   284       N(ATOM    284  N   VAL A  19)   66.30700000  *  46.23700000  *  69.42900000  *
   285       H(ATOM    285  H   VAL A  19)   66.75900000  *  46.08400000  *  70.31900000  *
   286       C(ATOM    286  CA  VAL A  19)   64.83200000  *  46.26500000  *  69.41900000  *
   287       H(ATOM    287  HA  VAL A  19)   64.48600000  *  46.68400000  *  68.47400000  *
   288       C(ATOM    288  CB  VAL A  19)   64.24000000  *  44.84200000  *  69.54200000  *
   289       H(ATOM    289  HB  VAL A  19)   64.56200000  *  44.39700000  *  70.48300000  *
   290       C(ATOM    290 CG1  VAL A  19)   62.70300000  *  44.87200000  *  69.51500000  *
   291       H(ATOM    291 HG11 VAL A  19)   62.35200000  *  45.34200000  *  68.59600000  *
   292       H(ATOM    292 HG12 VAL A  19)   62.31500000  *  43.85500000  *  69.57300000  *
   293       H(ATOM    293 HG13 VAL A  19)   62.31900000  *  45.42600000  *  70.37100000  *
   294       C(ATOM    294 CG2  VAL A  19)   64.69500000  *  43.92200000  *  68.39900000  *
   295       H(ATOM    295 HG21 VAL A  19)   65.77700000  *  43.79700000  *  68.42200000  *
   296       H(ATOM    296 HG22 VAL A  19)   64.24400000  *  42.93700000  *  68.51600000  *
   297       H(ATOM    297 HG23 VAL A  19)   64.40300000  *  44.34400000  *  67.43700000  *
   298       C(ATOM    298  C   VAL A  19)   64.32900000  *  47.16600000  *  70.55600000  *
   299       O(ATOM    299  O   VAL A  19)   64.43400000  *  46.81200000  *  71.72500000  *
   300       N(ATOM    300  N   GLY A  20)   63.80200000  *  48.35000000  *  70.23300000  *
   301       H(ATOM    301  H   GLY A  20)   63.71000000  *  48.56900000  *  69.25100000  *
   302       C(ATOM    302  CA  GLY A  20)   63.11900000  *  49.22200000  *  71.20300000  *
   303       H(ATOM    303 HA2  GLY A  20)   63.70300000  *  49.26200000  *  72.12300000  *
   304       H(ATOM    304 HA3  GLY A  20)   63.04500000  *  50.22900000  *  70.79400000  *
   305       C(ATOM    305  C   GLY A  20)   61.70700000  *  48.73200000  *  71.55000000  *
   306       O(ATOM    306  O   GLY A  20)   61.03400000  *  48.16800000  *  70.68600000  *
   307       N(ATOM    307  N   TYR A  21)   61.23400000  *  48.99500000  *  72.77600000  *
   308       H(ATOM    308  H   TYR A  21)   61.83500000  *  49.47100000  *  73.43400000  *
   309       C(ATOM    309  CA  TYR A  21)   59.92400000  *  48.54100000  *  73.27500000  *
   310       H(ATOM    310  HA  TYR A  21)   59.21700000  *  48.54800000  *  72.44500000  *
   311       C(ATOM    311  CB  TYR A  21)   60.05500000  *  47.08900000  *  73.76700000  *
   312       H(ATOM    312 HB2  TYR A  21)   60.37900000  *  46.46300000  *  72.93500000  *
   313       H(ATOM    313 HB3  TYR A  21)   60.83500000  *  47.04100000  *  74.52700000  *
   314       C(ATOM    314  CG  TYR A  21)   58.78100000  *  46.50400000  *  74.34700000  *
   315       C(ATOM    315 CD1  TYR A  21)   57.85400000  *  45.86700000  *  73.50000000  *
   316       H(ATOM    316 HD1  TYR A  21)   58.06600000  *  45.77400000  *  72.44500000  *
   317       C(ATOM    317 CE1  TYR A  21)   56.65800000  *  45.34200000  *  74.02700000  *
   318       H(ATOM    318 HE1  TYR A  21)   55.94800000  *  44.84700000  *  73.38000000  *
   319       C(ATOM    319  CZ  TYR A  21)   56.39400000  *  45.44800000  *  75.40900000  *
   320       O(ATOM    320  OH  TYR A  21)   55.25000000  *  44.93800000  *  75.92800000  *
   321       H(ATOM    321  HH  TYR A  21)   54.55600000  *  44.85700000  *  75.27000000  *
   322       C(ATOM    322 CE2  TYR A  21)   57.32500000  *  46.08000000  *  76.25700000  *
   323       H(ATOM    323 HE2  TYR A  21)   57.10500000  *  46.15700000  *  77.31200000  *
   324       C(ATOM    324 CD2  TYR A  21)   58.51800000  *  46.60800000  *  75.72800000  *
   325       H(ATOM    325 HD2  TYR A  21)   59.22500000  *  47.09900000  *  76.38000000  *
   326       C(ATOM    326  C   TYR A  21)   59.35100000  *  49.45200000  *  74.38300000  *
   327       O(ATOM    327  O   TYR A  21)   60.08200000  *  49.90100000  *  75.26800000  *
   328       N(ATOM    328  N   ILE A  22)   58.03600000  *  49.70600000  *  74.34100000  *
   329       H(ATOM    329  H   ILE A  22)   57.50600000  *  49.28100000  *  73.59300000  *
   330       C(ATOM    330  CA  ILE A  22)   57.27900000  *  50.56100000  *  75.27800000  *
   331       H(ATOM    331  HA  ILE A  22)   57.82500000  *  50.64400000  *  76.21900000  *
   332       C(ATOM    332  CB  ILE A  22)   57.08100000  *  51.97900000  *  74.67500000  *
   333       H(ATOM    333  HB  ILE A  22)   56.57500000  *  51.84800000  *  73.71900000  *
   334       C(ATOM    334 CG2  ILE A  22)   56.16200000  *  52.86600000  *  75.54100000  *
   335       H(ATOM    335 HG21 ILE A  22)   56.49000000  *  52.85100000  *  76.58000000  *
   336       H(ATOM    336 HG22 ILE A  22)   56.17700000  *  53.89400000  *  75.17600000  *
   337       H(ATOM    337 HG23 ILE A  22)   55.13400000  *  52.50900000  *  75.48800000  *
   338       C(ATOM    338 CG1  ILE A  22)   58.38900000  *  52.74200000  *  74.37000000  *
   339       H(ATOM    339 HG12 ILE A  22)   59.02700000  *  52.12500000  *  73.73700000  *
   340       H(ATOM    340 HG13 ILE A  22)   58.13300000  *  53.62900000  *  73.79000000  *
   341       C(ATOM    341 CD1  ILE A  22)   59.20000000  *  53.19700000  *  75.59000000  *
   342       H(ATOM    342 HD11 ILE A  22)   59.46500000  *  52.33700000  *  76.20600000  *
   343       H(ATOM    343 HD12 ILE A  22)   60.11300000  *  53.68200000  *  75.24700000  *
   344       H(ATOM    344 HD13 ILE A  22)   58.63000000  *  53.90900000  *  76.18600000  *
   345       C(ATOM    345  C   ILE A  22)   55.89600000  *  49.95300000  *  75.57200000  *
   346       O(ATOM    346  O   ILE A  22)   55.19500000  *  49.57000000  *  74.63400000  *
   347       N(ATOM    347  N   GLU A  23)   55.46400000  *  49.97500000  *  76.83900000  *
   348       H(ATOM    348  H   GLU A  23)   56.11600000  *  50.29300000  *  77.54200000  *
   349       C(ATOM    349  CA  GLU A  23)   54.03700000  *  49.98400000  *  77.21900000  *
   350       H(ATOM    350  HA  GLU A  23)   53.41300000  *  49.84100000  *  76.33700000  *
   351       C(ATOM    351  CB  GLU A  23)   53.68800000  *  48.88600000  *  78.24100000  *
   352       H(ATOM    352 HB2  GLU A  23)   54.36500000  *  48.95700000  *  79.09200000  *
   353       H(ATOM    353 HB3  GLU A  23)   52.68300000  *  49.11500000  *  78.59400000  *
   354       C(ATOM    354  CG  GLU A  23)   53.67300000  *  47.43200000  *  77.75500000  *
   355       H(ATOM    355 HG2  GLU A  23)   53.22100000  *  47.39100000  *  76.76400000  *
   356       H(ATOM    356 HG3  GLU A  23)   54.69800000  *  47.06800000  *  77.68400000  *
   357       C(ATOM    357  CD  GLU A  23)   52.84600000  *  46.56100000  *  78.72200000  *
   358       O(ATOM    358 OE1  GLU A  23)   53.43800000  *  45.72600000  *  79.45100000  *
   359       O(ATOM    359 OE2  GLU A  23)   51.60400000  *  46.74500000  *  78.76400000  *
   360       C(ATOM    360  C   GLU A  23)   53.66800000  *  51.33900000  *  77.85900000  *
   361       O(ATOM    361  O   GLU A  23)   54.34900000  *  51.80000000  *  78.78000000  *
   362       N(ATOM    362  N   LEU A  24)   52.57500000  *  51.96900000  *  77.41200000  *
   363       H(ATOM    363  H   LEU A  24)   52.09200000  *  51.57000000  *  76.62000000  *
   364       C(ATOM    364  CA  LEU A  24)   52.07400000  *  53.25500000  *  77.92300000  *
   365       H(ATOM    365  HA  LEU A  24)   52.55900000  *  53.48500000  *  78.87100000  *
   366       C(ATOM    366  CB  LEU A  24)   52.45100000  *  54.34300000  *  76.89500000  *
   367       H(ATOM    367 HB2  LEU A  24)   53.51900000  *  54.28600000  *  76.68400000  *
   368       H(ATOM    368 HB3  LEU A  24)   51.92900000  *  54.11200000  *  75.96700000  *
   369       C(ATOM    369  CG  LEU A  24)   52.10100000  *  55.78300000  *  77.32200000  *
   370       H(ATOM    370  HG  LEU A  24)   51.15500000  *  55.79800000  *  77.86300000  *
   371       C(ATOM    371 CD1  LEU A  24)   53.19700000  *  56.36500000  *  78.21200000  *
   372       H(ATOM    372 HD11 LEU A  24)   54.14800000  *  56.38600000  *  77.67800000  *
   373       H(ATOM    373 HD12 LEU A  24)   52.93600000  *  57.38100000  *  78.50800000  *
   374       H(ATOM    374 HD13 LEU A  24)   53.30600000  *  55.75600000  *  79.10900000  *
   375       C(ATOM    375 CD2  LEU A  24)   51.95900000  *  56.70000000  *  76.10600000  *
   376       H(ATOM    376 HD21 LEU A  24)   51.17500000  *  56.32600000  *  75.44800000  *
   377       H(ATOM    377 HD22 LEU A  24)   51.69400000  *  57.70600000  *  76.43300000  *
   378       H(ATOM    378 HD23 LEU A  24)   52.90100000  *  56.74200000  *  75.55900000  *
   379       C(ATOM    379  C   LEU A  24)   50.55100000  *  53.20300000  *  78.16200000  *
   380       O(ATOM    380  O   LEU A  24)   49.80100000  *  52.83600000  *  77.25900000  *
   381       N(ATOM    381  N   ASP A  25)   50.06500000  *  53.57600000  *  79.35100000  *
   382       H(ATOM    382  H   ASP A  25)   50.71600000  *  53.89100000  *  80.05600000  *
   383       C(ATOM    383  CA  ASP A  25)   48.62400000  *  53.77200000  *  79.58600000  *
   384       H(ATOM    384  HA  ASP A  25)   48.10900000  *  52.84400000  *  79.33800000  *
   385       C(ATOM    385  CB  ASP A  25)   48.35000000  *  54.08000000  *  81.06700000  *
   386       H(ATOM    386 HB2  ASP A  25)   48.68600000  *  53.24100000  *  81.67700000  *
   387       H(ATOM    387 HB3  ASP A  25)   48.91700000  *  54.96300000  *  81.36000000  *
   388       C(ATOM    388  CG  ASP A  25)   46.85800000  *  54.32400000  *  81.33500000  *
   389       O(ATOM    389 OD1  ASP A  25)   46.53800000  *  55.23400000  *  82.12900000  *
   390       O(ATOM    390 OD2  ASP A  25)   46.00400000  *  53.64500000  *  80.72100000  *
   391       C(ATOM    391  C   ASP A  25)   48.03700000  *  54.88700000  *  78.69600000  *
   392       O(ATOM    392  O   ASP A  25)   48.46700000  *  56.04200000  *  78.76800000  *
   393       N(ATOM    393  N   LEU A  26)   46.99500000  *  54.57800000  *  77.91800000  *
   394       H(ATOM    394  H   LEU A  26)   46.62000000  *  53.64100000  *  77.96600000  *
   395       C(ATOM    395  CA  LEU A  26)   46.31400000  *  55.56000000  *  77.06500000  *
   396       H(ATOM    396  HA  LEU A  26)   47.07100000  *  56.05900000  *  76.46100000  *
   397       C(ATOM    397  CB  LEU A  26)   45.35400000  *  54.80200000  *  76.12900000  *
   398       H(ATOM    398 HB2  LEU A  26)   45.92200000  *  54.04900000  *  75.58100000  *
   399       H(ATOM    399 HB3  LEU A  26)   44.61900000  *  54.28700000  *  76.74700000  *
   400       C(ATOM    400  CG  LEU A  26)   44.59000000  *  55.67800000  *  75.11700000  *
   401       H(ATOM    401  HG  LEU A  26)   44.01000000  *  56.43300000  *  75.64800000  *
   402       C(ATOM    402 CD1  LEU A  26)   45.52600000  *  56.36400000  *  74.12100000  *
   403       H(ATOM    403 HD11 LEU A  26)   46.12300000  *  55.61500000  *  73.60000000  *
   404       H(ATOM    404 HD12 LEU A  26)   44.94300000  *  56.92200000  *  73.38900000  *
   405       H(ATOM    405 HD13 LEU A  26)   46.18000000  *  57.06400000  *  74.64100000  *
   406       C(ATOM    406 CD2  LEU A  26)   43.62300000  *  54.80300000  *  74.32200000  *
   407       H(ATOM    407 HD21 LEU A  26)   42.91000000  *  54.33700000  *  75.00100000  *
   408       H(ATOM    408 HD22 LEU A  26)   43.07200000  *  55.41700000  *  73.61000000  *
   409       H(ATOM    409 HD23 LEU A  26)   44.17500000  *  54.03200000  *  73.78500000  *
   410       C(ATOM    410  C   LEU A  26)   45.59000000  *  56.64800000  *  77.88300000  *
   411       O(ATOM    411  O   LEU A  26)   45.52300000  *  57.80700000  *  77.46400000  *
   412       N(ATOM    412  N   ASN A  27)   45.06600000  *  56.28100000  *  79.05600000  *
   413       H(ATOM    413  H   ASN A  27)   45.21600000  *  55.32900000  *  79.35800000  *
   414       C(ATOM    414  CA  ASN A  27)   44.21300000  *  57.13900000  *  79.88100000  *
   415       H(ATOM    415  HA  ASN A  27)   43.48800000  *  57.63100000  *  79.23200000  *
   416       C(ATOM    416  CB  ASN A  27)   43.43400000  *  56.27600000  *  80.89300000  *
   417       H(ATOM    417 HB2  ASN A  27)   44.11400000  *  55.86100000  *  81.63700000  *
   418       H(ATOM    418 HB3  ASN A  27)   42.71400000  *  56.90500000  *  81.41700000  *
   419       C(ATOM    419  CG  ASN A  27)   42.67400000  *  55.13100000  *  80.24900000  *
   420       O(ATOM    420 OD1  ASN A  27)   41.54100000  *  55.27600000  *  79.81600000  *
   421       N(ATOM    421 ND2  ASN A  27)   43.26700000  *  53.96300000  *  80.15300000  *
   422       H(ATOM    422 HD21 ASN A  27)   42.74500000  *  53.20900000  *  79.72900000  *
   423       H(ATOM    423 HD22 ASN A  27)   44.21500000  *  53.83200000  *  80.47500000  *
   424       C(ATOM    424  C   ASN A  27)   45.01900000  *  58.24600000  *  80.58000000  *
   425       O(ATOM    425  O   ASN A  27)   44.71100000  *  59.42900000  *  80.42600000  *
   426       N(ATOM    426  N   SER A  28)   46.07200000  *  57.87600000  *  81.31200000  *
   427       H(ATOM    427  H   SER A  28)   46.23100000  *  56.88400000  *  81.41800000  *
   428       C(ATOM    428  CA  SER A  28)   46.85200000  *  58.77400000  *  82.18200000  *
   429       H(ATOM    429  HA  SER A  28)   46.36400000  *  59.74700000  *  82.24100000  *
   430       C(ATOM    430  CB  SER A  28)   46.86900000  *  58.19300000  *  83.60000000  *
   431       H(ATOM    431 HB2  SER A  28)   47.31700000  *  58.91800000  *  84.28000000  *
   432       H(ATOM    432 HB3  SER A  28)   45.84400000  *  58.00000000  *  83.91600000  *
   433       O(ATOM    433  OG  SER A  28)   47.60700000  *  56.98600000  *  83.65600000  *
   434       H(ATOM    434  HG  SER A  28)   47.15300000  *  56.31700000  *  83.13800000  *
   435       C(ATOM    435  C   SER A  28)   48.29400000  *  59.02500000  *  81.72600000  *
   436       O(ATOM    436  O   SER A  28)   48.95500000  *  59.90600000  *  82.26700000  *
   437       N(ATOM    437  N   GLY A  29)   48.79800000  *  58.30600000  *  80.71500000  *
   438       H(ATOM    438  H   GLY A  29)   48.23500000  *  57.58800000  *  80.28100000  *
   439       C(ATOM    439  CA  GLY A  29)   50.16600000  *  58.49300000  *  80.21800000  *
   440       H(ATOM    440 HA2  GLY A  29)   50.26100000  *  57.99600000  *  79.25300000  *
   441       H(ATOM    441 HA3  GLY A  29)   50.35600000  *  59.55600000  *  80.07400000  *
   442       C(ATOM    442  C   GLY A  29)   51.26600000  *  57.94000000  *  81.13300000  *
   443       O(ATOM    443  O   GLY A  29)   52.43200000  *  58.28200000  *  80.94000000  *
   444       N(ATOM    444  N   LYS A  30)   50.92800000  *  57.09400000  *  82.11800000  *
   445       H(ATOM    445  H   LYS A  30)   49.94700000  *  56.89800000  *  82.25600000  *
   446       C(ATOM    446  CA  LYS A  30)   51.91500000  *  56.31400000  *  82.88400000  *
   447       H(ATOM    447  HA  LYS A  30)   52.62700000  *  56.99800000  *  83.34600000  *
   448       C(ATOM    448  CB  LYS A  30)   51.21900000  *  55.48900000  *  83.98000000  *
   449       H(ATOM    449 HB2  LYS A  30)   50.46000000  *  54.86500000  *  83.50800000  *
   450       H(ATOM    450 HB3  LYS A  30)   51.95000000  *  54.83100000  *  84.44900000  *
   451       C(ATOM    451  CG  LYS A  30)   50.56400000  *  56.34600000  *  85.07700000  *
   452       H(ATOM    452 HG2  LYS A  30)   51.33300000  *  56.86500000  *  85.64800000  *
   453       H(ATOM    453 HG3  LYS A  30)   49.92400000  *  57.09800000  *  84.61600000  *
   454       C(ATOM    454  CD  LYS A  30)   49.73100000  *  55.46300000  *  86.02200000  *
   455       H(ATOM    455 HD2  LYS A  30)   49.24500000  *  54.67500000  *  85.44600000  *
   456       H(ATOM    456 HD3  LYS A  30)   50.39100000  *  54.99900000  *  86.75400000  *
   457       C(ATOM    457  CE  LYS A  30)   48.63400000  *  56.26700000  *  86.73200000  *
   458       H(ATOM    458 HE2  LYS A  30)   49.07800000  *  57.09500000  *  87.28300000  *
   459       H(ATOM    459 HE3  LYS A  30)   47.97500000  *  56.68100000  *  85.96800000  *
   460       N(ATOM    460  NZ  LYS A  30)   47.85400000  *  55.39600000  *  87.64300000  *
   461       H(ATOM    461 HZ1  LYS A  30)   48.28500000  *  55.32000000  *  88.55300000  *
   462       H(ATOM    462 HZ2  LYS A  30)   46.89700000  *  55.69900000  *  87.75600000  *
   463       H(ATOM    463 HZ3  LYS A  30)   47.83100000  *  54.44600000  *  87.30100000  *
   464       C(ATOM    464  C   LYS A  30)   52.68300000  *  55.37300000  *  81.95000000  *
   465       O(ATOM    465  O   LYS A  30)   52.07400000  *  54.66100000  *  81.15100000  *
   466       N(ATOM    466  N   ILE A  31)   54.00500000  *  55.32600000  *  82.10000000  *
   467       H(ATOM    467  H   ILE A  31)   54.42200000  *  55.92400000  *  82.79900000  *
   468       C(ATOM    468  CA  ILE A  31)   54.87600000  *  54.33900000  *  81.44500000  *
   469       H(ATOM    469  HA  ILE A  31)   54.49800000  *  54.12600000  *  80.44500000  *
   470       C(ATOM    470  CB  ILE A  31)   56.31600000  *  54.88200000  *  81.30200000  *
   471       H(ATOM    471  HB  ILE A  31)   56.65800000  *  55.19900000  *  82.28800000  *
   472       C(ATOM    472 CG2  ILE A  31)   57.27600000  *  53.79100000  *  80.79200000  *
   473       H(ATOM    473 HG21 ILE A  31)   56.95200000  *  53.42300000  *  79.81800000  *
   474       H(ATOM    474 HG22 ILE A  31)   58.28700000  *  54.18900000  *  80.70800000  *
   475       H(ATOM    475 HG23 ILE A  31)   57.32200000  *  52.95500000  *  81.49000000  *
   476       C(ATOM    476 CG1  ILE A  31)   56.34000000  *  56.10300000  *  80.35100000  *
   477       H(ATOM    477 HG12 ILE A  31)   56.18100000  *  55.77000000  *  79.32600000  *
   478       H(ATOM    478 HG13 ILE A  31)   55.52900000  *  56.78500000  *  80.60700000  *
   479       C(ATOM    479 CD1  ILE A  31)   57.63900000  *  56.91500000  *  80.42200000  *
   480       H(ATOM    480 HD11 ILE A  31)   58.48000000  *  56.32800000  *  80.05200000  *
   481       H(ATOM    481 HD12 ILE A  31)   57.53900000  *  57.80700000  *  79.80400000  *
   482       H(ATOM    482 HD13 ILE A  31)   57.83300000  *  57.21900000  *  81.45100000  *
   483       C(ATOM    483  C   ILE A  31)   54.81700000  *  53.04500000  *  82.26000000  *
   484       O(ATOM    484  O   ILE A  31)   55.07500000  *  53.06200000  *  83.46600000  *
   485       N(ATOM    485  N   LEU A  32)   54.44700000  *  51.94200000  *  81.61100000  *
   486       H(ATOM    486  H   LEU A  32)   54.28200000  *  52.00900000  *  80.61700000  *
   487       C(ATOM    487  CA  LEU A  32)   54.25900000  *  50.63300000  *  82.24400000  *
   488       H(ATOM    488  HA  LEU A  32)   54.22100000  *  50.75700000  *  83.32700000  *
   489       C(ATOM    489  CB  LEU A  32)   52.91000000  *  50.03300000  *  81.79600000  *
   490       H(ATOM    490 HB2  LEU A  32)   53.00200000  *  49.74400000  *  80.74900000  *
   491       H(ATOM    491 HB3  LEU A  32)   52.72700000  *  49.12500000  *  82.37000000  *
   492       C(ATOM    492  CG  LEU A  32)   51.68200000  *  50.95800000  *  81.91800000  *
   493       H(ATOM    493  HG  LEU A  32)   51.83500000  *  51.85300000  *  81.31400000  *
   494       C(ATOM    494 CD1  LEU A  32)   50.44100000  *  50.24700000  *  81.37400000  *
   495       H(ATOM    495 HD11 LEU A  32)   50.24400000  *  49.34600000  *  81.95500000  *
   496       H(ATOM    496 HD12 LEU A  32)   49.58200000  *  50.91600000  *  81.42700000  *
   497       H(ATOM    497 HD13 LEU A  32)   50.61200000  *  49.96900000  *  80.33400000  *
   498       C(ATOM    498 CD2  LEU A  32)   51.40500000  *  51.38100000  *  83.36200000  *
   499       H(ATOM    499 HD21 LEU A  32)   52.24600000  *  51.95700000  *  83.74700000  *
   500       H(ATOM    500 HD22 LEU A  32)   50.51100000  *  52.00300000  *  83.40200000  *
   501       H(ATOM    501 HD23 LEU A  32)   51.26200000  *  50.50000000  *  83.98700000  *
   502       C(ATOM    502  C   LEU A  32)   55.42900000  *  49.67300000  *  81.95800000  *
   503       O(ATOM    503  O   LEU A  32)   55.66600000  *  48.77400000  *  82.75800000  *
   504       N(ATOM    504  N   GLU A  33)   56.18600000  *  49.90500000  *  80.88000000  *
   505       H(ATOM    505  H   GLU A  33)   55.89200000  *  50.64700000  *  80.26000000  *
   506       C(ATOM    506  CA  GLU A  33)   57.47600000  *  49.27500000  *  80.55100000  *
   507       H(ATOM    507  HA  GLU A  33)   58.04900000  *  49.11900000  *  81.46500000  *
   508       C(ATOM    508  CB  GLU A  33)   57.31000000  *  47.93700000  *  79.81100000  *
   509       H(ATOM    509 HB2  GLU A  33)   56.69100000  *  48.10000000  *  78.92900000  *
   510       H(ATOM    510 HB3  GLU A  33)   58.29400000  *  47.63000000  *  79.45500000  *
   511       C(ATOM    511  CG  GLU A  33)   56.72100000  *  46.76400000  *  80.60000000  *
   512       H(ATOM    512 HG2  GLU A  33)   55.68400000  *  46.99200000  *  80.84500000  *
   513       H(ATOM    513 HG3  GLU A  33)   56.70300000  *  45.90000000  *  79.93600000  *
   514       C(ATOM    514  CD  GLU A  33)   57.47700000  *  46.36900000  *  81.88000000  *
   515       O(ATOM    515 OE1  GLU A  33)   56.90000000  *  45.54400000  *  82.63500000  *
   516       O(ATOM    516 OE2  GLU A  33)   58.63200000  *  46.80000000  *  82.09800000  *
   517       C(ATOM    517  C   GLU A  33)   58.28600000  *  50.18700000  *  79.61700000  *
   518       O(ATOM    518  O   GLU A  33)   57.70800000  *  50.87800000  *  78.77000000  *
   519       N(ATOM    519  N   SER A  34)   59.61800000  *  50.15800000  *  79.72800000  *
   520       H(ATOM    520  H   SER A  34)   60.03400000  *  49.59200000  *  80.45400000  *
   521       C(ATOM    521  CA  SER A  34)   60.52200000  *  50.97700000  *  78.91100000  *
   522       H(ATOM    522  HA  SER A  34)   60.04400000  *  51.14300000  *  77.94500000  *
   523       C(ATOM    523  CB  SER A  34)   60.70600000  *  52.35700000  *  79.56800000  *
   524       H(ATOM    524 HB2  SER A  34)   61.41800000  *  52.93700000  *  78.98000000  *
   525       H(ATOM    525 HB3  SER A  34)   59.74900000  *  52.87600000  *  79.54400000  *
   526       O(ATOM    526  OG  SER A  34)   61.15600000  *  52.29800000  *  80.91300000  *
   527       H(ATOM    527  HG  SER A  34)   62.03400000  *  52.68400000  *  80.95500000  *
   528       C(ATOM    528  C   SER A  34)   61.86400000  *  50.28700000  *  78.63100000  *
   529       O(ATOM    529  O   SER A  34)   62.67000000  *  50.07400000  *  79.53400000  *
   530       N(ATOM    530  N   PHE A  35)   62.12800000  *  49.95800000  *  77.35900000  *
   531       H(ATOM    531  H   PHE A  35)   61.41200000  *  50.10000000  *  76.66100000  *
   532       C(ATOM    532  CA  PHE A  35)   63.39600000  *  49.37600000  *  76.89900000  *
   533       H(ATOM    533  HA  PHE A  35)   64.14700000  *  49.51400000  *  77.67700000  *
   534       C(ATOM    534  CB  PHE A  35)   63.22700000  *  47.86600000  *  76.69800000  *
   535       H(ATOM    535 HB2  PHE A  35)   62.85700000  *  47.42500000  *  77.62400000  *
   536       H(ATOM    536 HB3  PHE A  35)   62.47500000  *  47.69500000  *  75.92800000  *
   537       C(ATOM    537  CG  PHE A  35)   64.51100000  *  47.15700000  *  76.30900000  *
   538       C(ATOM    538 CD1  PHE A  35)   65.47800000  *  46.85700000  *  77.28700000  *
   539       H(ATOM    539 HD1  PHE A  35)   65.29800000  *  47.12000000  *  78.31900000  *
   540       C(ATOM    540 CE1  PHE A  35)   66.67400000  *  46.20900000  *  76.92300000  *
   541       H(ATOM    541 HE1  PHE A  35)   67.41300000  *  45.97100000  *  77.67300000  *
   542       C(ATOM    542  CZ  PHE A  35)   66.90300000  *  45.85700000  *  75.58000000  *
   543       H(ATOM    543  HZ  PHE A  35)   67.81500000  *  45.35300000  *  75.29600000  *
   544       C(ATOM    544 CE2  PHE A  35)   65.93700000  *  46.15400000  *  74.60500000  *
   545       H(ATOM    545 HE2  PHE A  35)   66.10500000  *  45.88000000  *  73.57300000  *
   546       C(ATOM    546 CD2  PHE A  35)   64.74700000  *  46.80800000  *  74.96700000  *
   547       H(ATOM    547 HD2  PHE A  35)   64.01300000  *  47.03900000  *  74.21000000  *
   548       C(ATOM    548  C   PHE A  35)   63.91000000  *  50.08300000  *  75.63200000  *
   549       O(ATOM    549  O   PHE A  35)   63.18500000  *  50.23800000  *  74.64600000  *
   550       N(ATOM    550  N   ARG A  36)   65.15300000  *  50.58000000  *  75.70000000  *
   551       H(ATOM    551  H   ARG A  36)   65.68000000  *  50.35700000  *  76.53300000  *
   552       C(ATOM    552  CA  ARG A  36)   65.76100000  *  51.57000000  *  74.78500000  *
   553       H(ATOM    553  HA  ARG A  36)   66.67100000  *  51.94300000  *  75.25600000  *
   554       C(ATOM    554  CB  ARG A  36)   66.18600000  *  50.88700000  *  73.46700000  *
   555       H(ATOM    555 HB2  ARG A  36)   65.30100000  *  50.57700000  *  72.91200000  *
   556       H(ATOM    556 HB3  ARG A  36)   66.72500000  *  51.61500000  *  72.86000000  *
   557       C(ATOM    557  CG  ARG A  36)   67.09800000  *  49.67200000  *  73.68100000  *
   558       H(ATOM    558 HG2  ARG A  36)   67.89300000  *  49.93900000  *  74.37600000  *
   559       H(ATOM    559 HG3  ARG A  36)   66.51800000  *  48.85500000  *  74.11100000  *
   560       C(ATOM    560  CD  ARG A  36)   67.70700000  *  49.20800000  *  72.35000000  *
   561       H(ATOM    561 HD2  ARG A  36)   66.89500000  *  48.98200000  *  71.65900000  *
   562       H(ATOM    562 HD3  ARG A  36)   68.31300000  *  50.00700000  *  71.92300000  *
   563       N(ATOM    563  NE  ARG A  36)   68.52700000  *  47.99800000  *  72.51600000  *
   564       H(ATOM    564  HE  ARG A  36)   68.12900000  *  47.12300000  *  72.20700000  *
   565       C(ATOM    565  CZ  ARG A  36)   69.67500000  *  47.87100000  *  73.15000000  *
   566       N(ATOM    566 NH1  ARG A  36)   70.33100000  *  48.87800000  *  73.64600000  *
   567       H(ATOM    567 HH11 ARG A  36)   69.99600000  *  49.82000000  *  73.50500000  *
   568       H(ATOM    568 HH12 ARG A  36)   71.10600000  *  48.70900000  *  74.27100000  *
   569       N(ATOM    569 NH2  ARG A  36)   70.19700000  *  46.69400000  *  73.31100000  *
   570       H(ATOM    570 HH21 ARG A  36)   69.76100000  *  45.90000000  *  72.86400000  *
   571       H(ATOM    571 HH22 ARG A  36)   71.07500000  *  46.57500000  *  73.79500000  *
   572       C(ATOM    572  C   ARG A  36)   64.87400000  *  52.81800000  *  74.55000000  *
   573       O(ATOM    573  O   ARG A  36)   64.77400000  *  53.27600000  *  73.41100000  *
   574       N(ATOM    574  N   PRO A  37)   64.24200000  *  53.41300000  *  75.58700000  *
   575       C(ATOM    575  CD  PRO A  37)   64.46400000  *  53.18300000  *  77.01200000  *
   576       H(ATOM    576 HD2  PRO A  37)   65.52700000  *  53.16000000  *  77.25100000  *
   577       H(ATOM    577 HD3  PRO A  37)   63.98700000  *  52.25400000  *  77.32200000  *
   578       C(ATOM    578  CG  PRO A  37)   63.78000000  *  54.34000000  *  77.73300000  *
   579       H(ATOM    579 HG2  PRO A  37)   64.45500000  *  55.19400000  *  77.79700000  *
   580       H(ATOM    580 HG3  PRO A  37)   63.43400000  *  54.05200000  *  78.72600000  *
   581       C(ATOM    581  CB  PRO A  37)   62.61800000  *  54.66900000  *  76.80300000  *
   582       H(ATOM    582 HB2  PRO A  37)   62.28100000  *  55.69500000  *  76.94800000  *
   583       H(ATOM    583 HB3  PRO A  37)   61.80200000  *  53.96800000  *  76.97700000  *
   584       C(ATOM    584  CA  PRO A  37)   63.20400000  *  54.43400000  *  75.40700000  *
   585       H(ATOM    585  HA  PRO A  37)   62.42400000  *  54.04500000  *  74.75300000  *
   586       C(ATOM    586  C   PRO A  37)   63.71600000  *  55.74700000  *  74.80100000  *
   587       O(ATOM    587  O   PRO A  37)   62.97400000  *  56.38800000  *  74.05900000  *
   588       N(ATOM    588  N   GLU A  38)   64.96000000  *  56.12700000  *  75.11500000  *
   589       H(ATOM    589  H   GLU A  38)   65.46800000  *  55.55000000  *  75.77000000  *
   590       C(ATOM    590  CA  GLU A  38)   65.65100000  *  57.34000000  *  74.64500000  *
   591       H(ATOM    591  HA  GLU A  38)   64.92300000  *  58.07600000  *  74.30500000  *
   592       C(ATOM    592  CB  GLU A  38)   66.44800000  *  57.95700000  *  75.81300000  *
   593       H(ATOM    593 HB2  GLU A  38)   67.16700000  *  57.21400000  *  76.15700000  *
   594       H(ATOM    594 HB3  GLU A  38)   67.00500000  *  58.82100000  *  75.45100000  *
   595       C(ATOM    595  CG  GLU A  38)   65.59200000  *  58.43000000  *  76.99900000  *
   596       H(ATOM    596 HG2  GLU A  38)   64.92500000  *  59.22300000  *  76.66200000  *
   597       H(ATOM    597 HG3  GLU A  38)   64.98100000  *  57.60400000  *  77.36400000  *
   598       C(ATOM    598  CD  GLU A  38)   66.47400000  *  58.93400000  *  78.15200000  *
   599       O(ATOM    599 OE1  GLU A  38)   67.43700000  *  58.22300000  *  78.53500000  *
   600       O(ATOM    600 OE2  GLU A  38)   66.20100000  *  60.02400000  *  78.70500000  *
   601       C(ATOM    601  C   GLU A  38)   66.61400000  *  57.07800000  *  73.46700000  *
   602       O(ATOM    602  O   GLU A  38)   67.34200000  *  57.97500000  *  73.04900000  *
   603       N(ATOM    603  N   GLU A  39)   66.67000000  *  55.86200000  *  72.91600000  *
   604       H(ATOM    604  H   GLU A  39)   66.00700000  *  55.15600000  *  73.20200000  *
   605       C(ATOM    605  CA  GLU A  39)   67.51700000  *  55.60100000  *  71.74700000  *
   606       H(ATOM    606  HA  GLU A  39)   68.42200000  *  56.20400000  *  71.82600000  *
   607       C(ATOM    607  CB  GLU A  39)   67.96100000  *  54.14000000  *  71.67900000  *
   608       H(ATOM    608 HB2  GLU A  39)   67.09100000  *  53.48700000  *  71.59500000  *
   609       H(ATOM    609 HB3  GLU A  39)   68.54500000  *  54.06300000  *  70.76200000  *
   610       C(ATOM    610  CG  GLU A  39)   68.84300000  *  53.69200000  *  72.85500000  *
   611       H(ATOM    611 HG2  GLU A  39)   69.58200000  *  54.46800000  *  73.05500000  *
   612       H(ATOM    612 HG3  GLU A  39)   68.22100000  *  53.57700000  *  73.74300000  *
   613       C(ATOM    613  CD  GLU A  39)   69.59000000  *  52.38000000  *  72.56200000  *
   614       O(ATOM    614 OE1  GLU A  39)   69.96300000  *  52.12200000  *  71.39200000  *
   615       O(ATOM    615 OE2  GLU A  39)   69.82100000  *  51.59200000  *  73.50600000  *
   616       C(ATOM    616  C   GLU A  39)   66.81000000  *  55.99300000  *  70.44300000  *
   617       O(ATOM    617  O   GLU A  39)   65.65600000  *  55.62500000  *  70.22000000  *
   618       N(ATOM    618  N   ARG A  40)   67.49800000  *  56.71300000  *  69.54800000  *
   619       H(ATOM    619  H   ARG A  40)   68.42900000  *  57.02200000  *  69.79000000  *
   620       C(ATOM    620  CA  ARG A  40)   66.97200000  *  57.02200000  *  68.20800000  *
   621       H(ATOM    621  HA  ARG A  40)   65.97300000  *  57.42600000  *  68.36900000  *
   622       C(ATOM    622  CB  ARG A  40)   67.80100000  *  58.11500000  *  67.50700000  *
   623       H(ATOM    623 HB2  ARG A  40)   68.86500000  *  57.91200000  *  67.62800000  *
   624       H(ATOM    624 HB3  ARG A  40)   67.57100000  *  58.09600000  *  66.44100000  *
   625       C(ATOM    625  CG  ARG A  40)   67.46300000  *  59.52100000  *  68.03700000  *
   626       H(ATOM    626 HG2  ARG A  40)   66.39000000  *  59.68600000  *  67.94200000  *
   627       H(ATOM    627 HG3  ARG A  40)   67.74100000  *  59.59100000  *  69.08800000  *
   628       C(ATOM    628  CD  ARG A  40)   68.22300000  *  60.59000000  *  67.23600000  *
   629       H(ATOM    629 HD2  ARG A  40)   69.28700000  *  60.42900000  *  67.40900000  *
   630       H(ATOM    630 HD3  ARG A  40)   68.04000000  *  60.45500000  *  66.17000000  *
   631       N(ATOM    631  NE  ARG A  40)   67.90200000  *  61.97900000  *  67.62400000  *
   632       H(ATOM    632  HE  ARG A  40)   68.70000000  *  62.54800000  *  67.86900000  *
   633       C(ATOM    633  CZ  ARG A  40)   66.74400000  *  62.61200000  *  67.52600000  *
   634       N(ATOM    634 NH1  ARG A  40)   65.70800000  *  62.11900000  *  66.91200000  *
   635       H(ATOM    635 HH11 ARG A  40)   65.84400000  *  61.35000000  *  66.27200000  *
   636       H(ATOM    636 HH12 ARG A  40)   64.85700000  *  62.66200000  *  66.89000000  *
   637       N(ATOM    637 NH2  ARG A  40)   66.56600000  *  63.79400000  *  68.03100000  *
   638       H(ATOM    638 HH21 ARG A  40)   67.30000000  *  64.27400000  *  68.53200000  *
   639       H(ATOM    639 HH22 ARG A  40)   65.65200000  *  64.21700000  *  67.95700000  *
   640       C(ATOM    640  C   ARG A  40)   66.77100000  *  55.78300000  *  67.31900000  *
   641       O(ATOM    641  O   ARG A  40)   67.60900000  *  54.87200000  *  67.28300000  *
   642       N(ATOM    642  N   PHE A  41)   65.68900000  *  55.80700000  *  66.54100000  *
   643       H(ATOM    643  H   PHE A  41)   65.03600000  *  56.56200000  *  66.69600000  *
   644       C(ATOM    644  CA  PHE A  41)   65.35900000  *  54.88100000  *  65.44800000  *
   645       H(ATOM    645  HA  PHE A  41)   66.27700000  *  54.41500000  *  65.09000000  *
   646       C(ATOM    646  CB  PHE A  41)   64.40400000  *  53.77600000  *  65.93500000  *
   647       H(ATOM    647 HB2  PHE A  41)   63.52300000  *  54.24200000  *  66.37600000  *
   648       H(ATOM    648 HB3  PHE A  41)   64.05900000  *  53.22100000  *  65.06200000  *
   649       C(ATOM    649  CG  PHE A  41)   64.97600000  *  52.77800000  *  66.92900000  *
   650       C(ATOM    650 CD1  PHE A  41)   64.95900000  *  53.06700000  *  68.30500000  *
   651       H(ATOM    651 HD1  PHE A  41)   64.56900000  *  54.01500000  *  68.64600000  *
   652       C(ATOM    652 CE1  PHE A  41)   65.43500000  *  52.13100000  *  69.24000000  *
   653       H(ATOM    653 HE1  PHE A  41)   65.41000000  *  52.36600000  *  70.29400000  *
   654       C(ATOM    654  CZ  PHE A  41)   65.93000000  *  50.89200000  *  68.79900000  *
   655       H(ATOM    655  HZ  PHE A  41)   66.28200000  *  50.16600000  *  69.51700000  *
   656       C(ATOM    656 CE2  PHE A  41)   65.94600000  *  50.59200000  *  67.42500000  *
   657       H(ATOM    657 HE2  PHE A  41)   66.30500000  *  49.62900000  *  67.09300000  *
   658       C(ATOM    658 CD2  PHE A  41)   65.46700000  *  51.53200000  *  66.49200000  *
   659       H(ATOM    659 HD2  PHE A  41)   65.44900000  *  51.28600000  *  65.44000000  *
   660       C(ATOM    660  C   PHE A  41)   64.67700000  *  55.65300000  *  64.29400000  *
   661       O(ATOM    661  O   PHE A  41)   63.90700000  *  56.57800000  *  64.57300000  *
   662       N(ATOM    662  N   PRO A  42)   64.93700000  *  55.31500000  *  63.01200000  *
   663       C(ATOM    663  CD  PRO A  42)   65.96500000  *  54.40100000  *  62.53500000  *
   664       H(ATOM    664 HD2  PRO A  42)   65.62000000  *  53.37400000  *  62.64800000  *
   665       H(ATOM    665 HD3  PRO A  42)   66.91200000  *  54.54700000  *  63.05500000  *
   666       C(ATOM    666  CG  PRO A  42)   66.14500000  *  54.72800000  *  61.05300000  *
   667       H(ATOM    667 HG2  PRO A  42)   66.50400000  *  53.86700000  *  60.48900000  *
   668       H(ATOM    668 HG3  PRO A  42)   66.82400000  *  55.57300000  *  60.94300000  *
   669       C(ATOM    669  CB  PRO A  42)   64.73700000  *  55.14000000  *  60.62800000  *
   670       H(ATOM    670 HB2  PRO A  42)   64.15700000  *  54.24500000  *  60.40000000  *
   671       H(ATOM    671 HB3  PRO A  42)   64.75600000  *  55.80800000  *  59.76700000  *
   672       C(ATOM    672  CA  PRO A  42)   64.17400000  *  55.83900000  *  61.87300000  *
   673       H(ATOM    673  HA  PRO A  42)   64.34800000  *  56.91200000  *  61.78600000  *
   674       C(ATOM    674  C   PRO A  42)   62.67100000  *  55.57100000  *  62.02000000  *
   675       O(ATOM    675  O   PRO A  42)   62.28600000  *  54.49800000  *  62.48200000  *
   676       N(ATOM    676  N   MET A  43)   61.81800000  *  56.52100000  *  61.62500000  *
   677       H(ATOM    677  H   MET A  43)   62.19200000  *  57.39200000  *  61.27800000  *
   678       C(ATOM    678  CA  MET A  43)   60.35800000  *  56.31600000  *  61.63900000  *
   679       H(ATOM    679  HA  MET A  43)   60.07900000  *  55.81900000  *  62.56800000  *
   680       C(ATOM    680  CB  MET A  43)   59.63300000  *  57.66600000  *  61.58700000  *
   681       H(ATOM    681 HB2  MET A  43)   60.04900000  *  58.27700000  *  60.78700000  *
   682       H(ATOM    682 HB3  MET A  43)   58.57700000  *  57.49700000  *  61.37500000  *
   683       C(ATOM    683  CG  MET A  43)   59.73400000  *  58.40400000  *  62.92200000  *
   684       H(ATOM    684 HG2  MET A  43)   59.30900000  *  57.76600000  *  63.69700000  *
   685       H(ATOM    685 HG3  MET A  43)   60.78200000  *  58.58200000  *  63.16300000  *
   686       S(ATOM    686  SD  MET A  43)   58.84900000  *  59.98200000  *  62.95000000  *
   687       C(ATOM    687  CE  MET A  43)   60.00700000  *  60.98800000  *  61.98100000  *
   688       H(ATOM    688 HE1  MET A  43)   60.10100000  *  60.58800000  *  60.97200000  *
   689       H(ATOM    689 HE2  MET A  43)   59.64800000  *  62.01500000  *  61.92600000  *
   690       H(ATOM    690 HE3  MET A  43)   60.98700000  *  60.97900000  *  62.45900000  *
   691       C(ATOM    691  C   MET A  43)   59.85600000  *  55.41900000  *  60.49900000  *
   692       O(ATOM    692  O   MET A  43)   59.05200000  *  54.51300000  *  60.72800000  *
   693       N(ATOM    693  N   MET A  44)   60.32300000  *  55.66700000  *  59.26900000  *
   694       H(ATOM    694  H   MET A  44)   60.98000000  *  56.42700000  *  59.16100000  *
   695       C(ATOM    695  CA  MET A  44)   59.73300000  *  55.11000000  *  58.03800000  *
   696       H(ATOM    696  HA  MET A  44)   60.21500000  *  55.58700000  *  57.18600000  *
   697       C(ATOM    697  CB  MET A  44)   60.00800000  *  53.58800000  *  57.94600000  *
   698       H(ATOM    698 HB2  MET A  44)   59.38600000  *  53.07700000  *  58.68100000  *
   699       H(ATOM    699 HB3  MET A  44)   59.70200000  *  53.22800000  *  56.96300000  *
   700       C(ATOM    700  CG  MET A  44)   61.47700000  *  53.18000000  *  58.17400000  *
   701       H(ATOM    701 HG2  MET A  44)   61.97100000  *  53.14900000  *  57.20300000  *
   702       H(ATOM    702 HG3  MET A  44)   61.99200000  *  53.93500000  *  58.76700000  *
   703       S(ATOM    703  SD  MET A  44)   61.73800000  *  51.58200000  *  59.01200000  *
   704       C(ATOM    704  CE  MET A  44)   61.01500000  *  51.90400000  *  60.64100000  *
   705       H(ATOM    705 HE1  MET A  44)   59.92700000  *  51.93100000  *  60.57400000  *
   706       H(ATOM    706 HE2  MET A  44)   61.31700000  *  51.12200000  *  61.33800000  *
   707       H(ATOM    707 HE3  MET A  44)   61.37100000  *  52.86600000  *  61.00900000  *
   708       C(ATOM    708  C   MET A  44)   58.22800000  *  55.48400000  *  57.97100000  *
   709       O(ATOM    709  O   MET A  44)   57.82300000  *  56.51000000  *  58.52300000  *
   710       N(ATOM    710  N   SER A  45)   57.36200000  *  54.64500000  *  57.38700000  *
   711       H(ATOM    711  H   SER A  45)   57.74600000  *  53.88900000  *  56.83900000  *
   712       C(ATOM    712  CA  SER A  45)   55.91600000  *  54.91400000  *  57.23700000  *
   713       H(ATOM    713  HA  SER A  45)   55.79500000  *  55.74900000  *  56.54700000  *
   714       C(ATOM    714  CB  SER A  45)   55.19600000  *  53.69900000  *  56.65500000  *
   715       H(ATOM    715 HB2  SER A  45)   55.37300000  *  52.85600000  *  57.32300000  *
   716       H(ATOM    716 HB3  SER A  45)   54.12300000  *  53.88500000  *  56.62000000  *
   717       O(ATOM    717  OG  SER A  45)   55.62700000  *  53.34400000  *  55.36300000  *
   718       H(ATOM    718  HG  SER A  45)   55.40900000  *  52.41300000  *  55.27600000  *
   719       C(ATOM    719  C   SER A  45)   55.13800000  *  55.26100000  *  58.51700000  *
   720       O(ATOM    720  O   SER A  45)   54.02100000  *  55.76300000  *  58.39900000  *
   721       N(ATOM    721  N   THR A  46)   55.64800000  *  55.00600000  *  59.72900000  *
   722       H(ATOM    722  H   THR A  46)   56.60500000  *  54.69200000  *  59.80800000  *
   723       C(ATOM    723  CA  THR A  46)   54.93200000  *  55.36500000  *  60.97300000  *
   724       H(ATOM    724  HA  THR A  46)   53.95500000  *  54.88200000  *  60.95600000  *
   725       C(ATOM    725  CB  THR A  46)   55.65900000  *  54.88000000  *  62.23500000  *
   726       H(ATOM    726  HB  THR A  46)   55.01600000  *  55.06400000  *  63.09500000  *
   727       C(ATOM    727 CG2  THR A  46)   56.00300000  *  53.38900000  *  62.20000000  *
   728       H(ATOM    728 HG21 THR A  46)   56.73600000  *  53.18500000  *  61.41900000  *
   729       H(ATOM    729 HG22 THR A  46)   56.41700000  *  53.08500000  *  63.16100000  *
   730       H(ATOM    730 HG23 THR A  46)   55.09900000  *  52.81200000  *  62.00600000  *
   731       O(ATOM    731 OG1  THR A  46)   56.84800000  *  55.60600000  *  62.40700000  *
   732       H(ATOM    732 HG1  THR A  46)   57.28700000  *  55.26700000  *  63.19100000  *
   733       C(ATOM    733  C   THR A  46)   54.67900000  *  56.87600000  *  61.07900000  *
   734       O(ATOM    734  O   THR A  46)   53.65900000  *  57.28800000  *  61.63400000  *
   735       N(ATOM    735  N   PHE A  47)   55.52700000  *  57.70400000  *  60.45000000  *
   736       H(ATOM    736  H   PHE A  47)   56.34500000  *  57.30100000  *  60.01600000  *
   737       C(ATOM    737  CA  PHE A  47)   55.35900000  *  59.16100000  *  60.38500000  *
   738       H(ATOM    738  HA  PHE A  47)   55.34100000  *  59.53000000  *  61.41100000  *
   739       C(ATOM    739  CB  PHE A  47)   56.57500000  *  59.80700000  *  59.68500000  *
   740       H(ATOM    740 HB2  PHE A  47)   56.86200000  *  60.68100000  *  60.26900000  *
   741       H(ATOM    741 HB3  PHE A  47)   57.42800000  *  59.12900000  *  59.71500000  *
   742       C(ATOM    742  CG  PHE A  47)   56.35200000  *  60.26800000  *  58.25200000  *
   743       C(ATOM    743 CD1  PHE A  47)   55.85500000  *  61.56200000  *  58.00700000  *
   744       H(ATOM    744 HD1  PHE A  47)   55.63500000  *  62.22100000  *  58.83500000  *
   745       C(ATOM    745 CE1  PHE A  47)   55.66300000  *  62.01100000  *  56.69000000  *
   746       H(ATOM    746 HE1  PHE A  47)   55.31500000  *  63.01800000  *  56.51000000  *
   747       C(ATOM    747  CZ  PHE A  47)   55.94800000  *  61.16100000  *  55.60700000  *
   748       H(ATOM    748  HZ  PHE A  47)   55.82000000  *  61.50800000  *  54.59200000  *
   749       C(ATOM    749 CE2  PHE A  47)   56.42700000  *  59.86300000  *  55.84600000  *
   750       H(ATOM    750 HE2  PHE A  47)   56.66600000  *  59.21300000  *  55.01700000  *
   751       C(ATOM    751 CD2  PHE A  47)   56.63500000  *  59.42100000  *  57.16400000  *
   752       H(ATOM    752 HD2  PHE A  47)   57.03500000  *  58.43100000  *  57.32800000  *
   753       C(ATOM    753  C   PHE A  47)   54.02500000  *  59.58000000  *  59.73700000  *
   754       O(ATOM    754  O   PHE A  47)   53.47700000  *  60.62700000  *  60.08400000  *
   755       N(ATOM    755  N   LYS A  48)   53.46700000  *  58.75300000  *  58.83700000  *
   756       H(ATOM    756  H   LYS A  48)   53.95600000  *  57.89200000  *  58.63900000  *
   757       C(ATOM    757  CA  LYS A  48)   52.22900000  *  59.02300000  *  58.08000000  *
   758       H(ATOM    758  HA  LYS A  48)   52.36000000  *  59.96300000  *  57.54300000  *
   759       C(ATOM    759  CB  LYS A  48)   52.00000000  *  57.91700000  *  57.02700000  *
   760       H(ATOM    760 HB2  LYS A  48)   51.92300000  *  56.94900000  *  57.52200000  *
   761       H(ATOM    761 HB3  LYS A  48)   51.06100000  *  58.10600000  *  56.50600000  *
   762       C(ATOM    762  CG  LYS A  48)   53.14500000  *  57.89800000  *  55.99600000  *
   763       H(ATOM    763 HG2  LYS A  48)   53.11200000  *  58.82800000  *  55.42800000  *
   764       H(ATOM    764 HG3  LYS A  48)   54.10100000  *  57.86200000  *  56.51700000  *
   765       C(ATOM    765  CD  LYS A  48)   53.11600000  *  56.70700000  *  55.02600000  *
   766       H(ATOM    766 HD2  LYS A  48)   53.17100000  *  55.77900000  *  55.59400000  *
   767       H(ATOM    767 HD3  LYS A  48)   52.20500000  *  56.71800000  *  54.42800000  *
   768       C(ATOM    768  CE  LYS A  48)   54.33500000  *  56.84400000  *  54.10700000  *
   769       H(ATOM    769 HE2  LYS A  48)   54.10800000  *  57.55200000  *  53.31000000  *
   770       H(ATOM    770 HE3  LYS A  48)   55.16300000  *  57.26500000  *  54.67600000  *
   771       N(ATOM    771  NZ  LYS A  48)   54.80300000  *  55.57200000  *  53.51000000  *
   772       H(ATOM    772 HZ1  LYS A  48)   54.14200000  *  55.16700000  *  52.86400000  *
   773       H(ATOM    773 HZ2  LYS A  48)   55.62900000  *  55.77400000  *  52.96600000  *
   774       H(ATOM    774 HZ3  LYS A  48)   55.09700000  *  54.89000000  *  54.19400000  *
   775       C(ATOM    775  C   LYS A  48)   51.01300000  *  59.21800000  *  58.99500000  *
   776       O(ATOM    776  O   LYS A  48)   50.14200000  *  60.02900000  *  58.69100000  *
   777       N(ATOM    777  N   VAL A  49)   50.98500000  *  58.54200000  *  60.14900000  *
   778       H(ATOM    778  H   VAL A  49)   51.76400000  *  57.92900000  *  60.34200000  *
   779       C(ATOM    779  CA  VAL A  49)   50.00800000  *  58.78700000  *  61.22700000  *
   780       H(ATOM    780  HA  VAL A  49)   49.00500000  *  58.67900000  *  60.81500000  *
   781       C(ATOM    781  CB  VAL A  49)   50.16600000  *  57.75200000  *  62.36000000  *
   782       H(ATOM    782  HB  VAL A  49)   51.19900000  *  57.76500000  *  62.70800000  *
   783       C(ATOM    783 CG1  VAL A  49)   49.26300000  *  58.04700000  *  63.56400000  *
   784       H(ATOM    784 HG11 VAL A  49)   48.22000000  *  58.08400000  *  63.24900000  *
   785       H(ATOM    785 HG12 VAL A  49)   49.38000000  *  57.26300000  *  64.31200000  *
   786       H(ATOM    786 HG13 VAL A  49)   49.53300000  *  58.99500000  *  64.02900000  *
   787       C(ATOM    787 CG2  VAL A  49)   49.83900000  *  56.34300000  *  61.84700000  *
   788       H(ATOM    788 HG21 VAL A  49)   50.53000000  *  56.06100000  *  61.05200000  *
   789       H(ATOM    789 HG22 VAL A  49)   49.93700000  *  55.62200000  *  62.65900000  *
   790       H(ATOM    790 HG23 VAL A  49)   48.81800000  *  56.31000000  *  61.46800000  *
   791       C(ATOM    791  C   VAL A  49)   50.10900000  *  60.22100000  *  61.76000000  *
   792       O(ATOM    792  O   VAL A  49)   49.11400000  *  60.94400000  *  61.77900000  *
   793       N(ATOM    793  N   LEU A  50)   51.30600000  *  60.64500000  *  62.18200000  *
   794       H(ATOM    794  H   LEU A  50)   52.09800000  *  60.02900000  *  62.06900000  *
   795       C(ATOM    795  CA  LEU A  50)   51.54300000  *  61.98800000  *  62.73100000  *
   796       H(ATOM    796  HA  LEU A  50)   50.83300000  *  62.15300000  *  63.54000000  *
   797       C(ATOM    797  CB  LEU A  50)   52.96800000  *  62.09400000  *  63.31300000  *
   798       H(ATOM    798 HB2  LEU A  50)   53.68400000  *  62.07300000  *  62.49200000  *
   799       H(ATOM    799 HB3  LEU A  50)   53.05300000  *  63.06700000  *  63.79600000  *
   800       C(ATOM    800  CG  LEU A  50)   53.37400000  *  61.00400000  *  64.32700000  *
   801       H(ATOM    801  HG  LEU A  50)   53.47300000  *  60.04900000  *  63.81200000  *
   802       C(ATOM    802 CD1  LEU A  50)   54.72500000  *  61.37000000  *  64.94100000  *
   803       H(ATOM    803 HD11 LEU A  50)   54.65700000  *  62.32800000  *  65.45700000  *
   804       H(ATOM    804 HD12 LEU A  50)   55.02100000  *  60.61000000  *  65.66500000  *
   805       H(ATOM    805 HD13 LEU A  50)   55.48400000  *  61.43100000  *  64.16200000  *
   806       C(ATOM    806 CD2  LEU A  50)   52.37100000  *  60.84100000  *  65.47100000  *
   807       H(ATOM    807 HD21 LEU A  50)   51.42700000  *  60.45700000  *  65.08500000  *
   808       H(ATOM    808 HD22 LEU A  50)   52.75500000  *  60.12800000  *  66.20000000  *
   809       H(ATOM    809 HD23 LEU A  50)   52.20400000  *  61.80200000  *  65.95900000  *
   810       C(ATOM    810  C   LEU A  50)   51.28300000  *  63.09600000  *  61.69600000  *
   811       O(ATOM    811  O   LEU A  50)   50.67100000  *  64.11200000  *  62.02000000  *
   812       N(ATOM    812  N   LEU A  51)   51.68300000  *  62.86600000  *  60.44100000  *
   813       H(ATOM    813  H   LEU A  51)   52.21700000  *  62.02500000  *  60.27800000  *
   814       C(ATOM    814  CA  LEU A  51)   51.35600000  *  63.69600000  *  59.27800000  *
   815       H(ATOM    815  HA  LEU A  51)   51.80500000  *  64.68000000  *  59.41000000  *
   816       C(ATOM    816  CB  LEU A  51)   51.98100000  *  63.02700000  *  58.04100000  *
   817       H(ATOM    817 HB2  LEU A  51)   53.06600000  *  63.10000000  *  58.11300000  *
   818       H(ATOM    818 HB3  LEU A  51)   51.72000000  *  61.96900000  *  58.06600000  *
   819       C(ATOM    819  CG  LEU A  51)   51.52100000  *  63.57400000  *  56.67800000  *
   820       H(ATOM    820  HG  LEU A  51)   50.43800000  *  63.49000000  *  56.58500000  *
   821       C(ATOM    821 CD1  LEU A  51)   51.92000000  *  65.03500000  *  56.49500000  *
   822       H(ATOM    822 HD11 LEU A  51)   52.99500000  *  65.14700000  *  56.63600000  *
   823       H(ATOM    823 HD12 LEU A  51)   51.64600000  *  65.36900000  *  55.49400000  *
   824       H(ATOM    824 HD13 LEU A  51)   51.39100000  *  65.65500000  *  57.21800000  *
   825       C(ATOM    825 CD2  LEU A  51)   52.14700000  *  62.72800000  *  55.57500000  *
   826       H(ATOM    826 HD21 LEU A  51)   51.80900000  *  61.69500000  *  55.65900000  *
   827       H(ATOM    827 HD22 LEU A  51)   51.84400000  *  63.12000000  *  54.60400000  *
   828       H(ATOM    828 HD23 LEU A  51)   53.23500000  *  62.76300000  *  55.63400000  *
   829       C(ATOM    829  C   LEU A  51)   49.84200000  *  63.90100000  *  59.12100000  *
   830       O(ATOM    830  O   LEU A  51)   49.38200000  *  65.04000000  *  59.04200000  *
   831       N(ATOM    831  N   CYX A  52)   49.05500000  *  62.82100000  *  59.10900000  *
   832       H(ATOM    832  H   CYX A  52)   49.47300000  *  61.90200000  *  59.13300000  *
   833       C(ATOM    833  CA  CYX A  52)   47.59800000  *  62.92800000  *  59.05400000  *
   834       H(ATOM    834  HA  CYX A  52)   47.34600000  *  63.57300000  *  58.21200000  *
   835       C(ATOM    835  CB  CYX A  52)   46.98000000  *  61.56000000  *  58.75900000  *
   836       H(ATOM    836 HB2  CYX A  52)   47.43300000  *  60.81800000  *  59.41600000  *
   837       H(ATOM    837 HB3  CYX A  52)   45.90900000  *  61.59300000  *  58.95700000  *
   838       S(ATOM    838  SG  CYX A  52)   47.22800000  *  61.07200000  *  57.02900000  *
   839       C(ATOM    839  C   CYX A  52)   47.01000000  *  63.61100000  *  60.29900000  *
   840       O(ATOM    840  O   CYX A  52)   46.05000000  *  64.36300000  *  60.16300000  *
   841       N(ATOM    841  N   GLY A  53)   47.60500000  *  63.44500000  *  61.48600000  *
   842       H(ATOM    842  H   GLY A  53)   48.35700000  *  62.77500000  *  61.55000000  *
   843       C(ATOM    843  CA  GLY A  53)   47.29700000  *  64.26100000  *  62.66800000  *
   844       H(ATOM    844 HA2  GLY A  53)   46.26300000  *  64.08700000  *  62.96500000  *
   845       H(ATOM    845 HA3  GLY A  53)   47.94700000  *  63.95700000  *  63.48900000  *
   846       C(ATOM    846  C   GLY A  53)   47.49100000  *  65.76900000  *  62.44600000  *
   847       O(ATOM    847  O   GLY A  53)   46.59800000  *  66.55900000  *  62.75300000  *
   848       N(ATOM    848  N   ALA A  54)   48.62900000  *  66.18100000  *  61.87800000  *
[...]
 6160  O(ATOM   6161  N   HIE B 410)   1.87852   1.81829   1.33262   1.61727
 6161  N(ATOM   6162  H   HIE B 410)   1.54669   1.17932   1.20932   1.60537
 6162  H(ATOM   6163  CA  HIE B 410)   0.64417
 6163  C(ATOM   6164  HA  HIE B 410)   1.07021   0.83408   1.11347   0.97433
 6164  H(ATOM   6165  CB  HIE B 410)   0.81039
 6165  C(ATOM   6166 HB2  HIE B 410)   1.05117   0.97378   1.18210   1.06114
 6166  H(ATOM   6167 HB3  HIE B 410)   0.82137
 6167  H(ATOM   6168  CG  HIE B 410)   0.81867
 6168  C(ATOM   6169 ND1  HIE B 410)   1.06090   0.94836   0.96408   0.97737
 6169  N(ATOM   6170 CE1  HIE B 410)   1.76625   1.07037   1.25628   1.29978
 6170  C(ATOM   6171 HE1  HIE B 410)   1.09184   1.00030   0.94441   0.88540
 6171  H(ATOM   6172 NE2  HIE B 410)   0.79023
 6172  N(ATOM   6173 HE2  HIE B 410)   1.51037   1.15990   1.31671   1.32160
 6173  H(ATOM   6174 CD2  HIE B 410)   0.66623
 6174  C(ATOM   6175 HD2  HIE B 410)   1.07534   0.87021   1.11879   1.14133
 6175  H(ATOM   6176  C   HIE B 410)   0.80946
 6176  C(ATOM   6177  O   HIE B 410)   1.08270   0.71864   0.81427   0.81316
 6177  O(ATOM   6178  N   LEU B 411)   1.88122   1.58521   1.30548   1.86628
 6178  N(ATOM   6179  H   LEU B 411)   1.54557   1.58974   1.25995   1.13739
 6179  H(ATOM   6180  CA  LEU B 411)   0.65255
 6180  C(ATOM   6181  HA  LEU B 411)   1.07331   0.96737   1.08540   0.83626
 6181  H(ATOM   6182  CB  LEU B 411)   0.82312
 6182  C(ATOM   6183 HB2  LEU B 411)   1.06544   1.01507   1.14288   1.08975
 6183  H(ATOM   6184 HB3  LEU B 411)   0.84056
 6184  H(ATOM   6185  CG  LEU B 411)   0.85424
 6185  C(ATOM   6186  HG  LEU B 411)   1.05028   0.95840   0.98843   1.05639
 6186  H(ATOM   6187 CD1  LEU B 411)   0.88211
 6187  C(ATOM   6188 HD11 LEU B 411)   1.05660   1.16176   1.06659   1.18227
 6188  H(ATOM   6189 HD12 LEU B 411)   0.83472
 6189  H(ATOM   6190 HD13 LEU B 411)   0.85724
 6190  H(ATOM   6191 CD2  LEU B 411)   0.85833
 6191  C(ATOM   6192 HD21 LEU B 411)   1.05564   1.14718   1.14825   1.10194
 6192  H(ATOM   6193 HD22 LEU B 411)   0.84802
 6193  H(ATOM   6194 HD23 LEU B 411)   0.86032
 6194  H(ATOM   6195  C   LEU B 411)   0.84254
 6195  C(ATOM   6196  O   LEU B 411)   1.08607   0.85045   0.76523   0.72722
 6196  O(ATOM   6197  N   TRP B 412)   1.87972   1.77310   1.36145   1.63558
 6197  N(ATOM   6198  H   TRP B 412)   1.54359   1.16896   1.18298   1.61974
 6198  H(ATOM   6199  CA  TRP B 412)   0.65721
 6199  C(ATOM   6200  HA  TRP B 412)   1.06995   0.81711   1.12537   0.96207
 6200  H(ATOM   6201  CB  TRP B 412)   0.80775
 6201  C(ATOM   6202 HB2  TRP B 412)   1.04901   1.09560   1.02965   1.08357
 6202  H(ATOM   6203 HB3  TRP B 412)   0.84056
 6203  H(ATOM   6204  CG  TRP B 412)   0.83462
 6204  C(ATOM   6205 CD1  TRP B 412)   1.05236   1.07394   0.96178   1.06012
 6205  C(ATOM   6206 HD1  TRP B 412)   1.07727   1.04377   0.87399   1.02877
 6206  H(ATOM   6207 NE1  TRP B 412)   0.82088
 6207  N(ATOM   6208 HE1  TRP B 412)   1.50916   1.37609   1.16020   1.32577
 6208  H(ATOM   6209 CE2  TRP B 412)   0.66628
 6209  C(ATOM   6210 CZ2  TRP B 412)   1.05217   0.94190   0.97830   0.92368
 6210  C(ATOM   6211 HZ2  TRP B 412)   1.07429   1.04565   1.08439   1.03365
 6211  H(ATOM   6212 CH2  TRP B 412)   0.83344
 6212  C(ATOM   6213 HH2  TRP B 412)   1.08671   1.00140   1.01080   1.01721
 6213  H(ATOM   6214 CZ3  TRP B 412)   0.84532
 6214  C(ATOM   6215 HZ3  TRP B 412)   1.08324   1.05248   0.99694   1.05135
 6215  H(ATOM   6216 CE3  TRP B 412)   0.83542
 6216  C(ATOM   6217 HE3  TRP B 412)   1.08866   0.96552   1.08293   0.96694
 6217  H(ATOM   6218 CD2  TRP B 412)   0.84636
 6218  C(ATOM   6219  C   TRP B 412)   1.06615   1.02902   0.97205   1.02033
 6219  C(ATOM   6220  O   TRP B 412)   1.08535   0.72287   0.77052   0.83710
 6220  O(ATOM   6221  N   PHE B 413)   1.87852   1.60458   1.37283   1.79798
 6221  N(ATOM   6222  H   PHE B 413)   1.54592   1.43116   1.39671   1.16008
 6222  H(ATOM   6223  CA  PHE B 413)   0.64922
 6223  C(ATOM   6224  HA  PHE B 413)   1.07210   1.01026   1.07717   0.81590
 6224  H(ATOM   6225  CB  PHE B 413)   0.82157
 6225  C(ATOM   6226 HB2  PHE B 413)   1.06005   1.05814   1.08633   1.11883
 6226  H(ATOM   6227 HB3  PHE B 413)   0.82579
 6227  H(ATOM   6228  CG  PHE B 413)   0.83651
 6228  C(ATOM   6229 CD1  PHE B 413)   1.07546   0.94827   0.98539   0.98020
 6229  C(ATOM   6230 HD1  PHE B 413)   1.08940   1.03484   0.99871   1.03979
 6230  H(ATOM   6231 CE1  PHE B 413)   0.83329
 6231  C(ATOM   6232 HE1  PHE B 413)   1.08817   0.98962   1.01156   1.04832
 6232  H(ATOM   6233  CZ  PHE B 413)   0.84223
 6233  C(ATOM   6234  HZ  PHE B 413)   1.08630   1.06764   1.01834   0.99341
 6234  H(ATOM   6235 CE2  PHE B 413)   0.85313
 6235  C(ATOM   6236 HE2  PHE B 413)   1.09137   1.03349   0.99018   1.03954
 6236  H(ATOM   6237 CD2  PHE B 413)   0.84538
 6237  C(ATOM   6238 HD2  PHE B 413)   1.08945   0.99299   1.03282   1.05596
 6238  H(ATOM   6239  C   PHE B 413)   0.84633
 6239  C(ATOM   6240  O   PHE B 413)   1.07791   0.86114   0.73196   0.74292
 6240  O(ATOM   6241  N   THR B 414)   1.88307   1.60651   1.54658   1.57900
 6241  N(ATOM   6242  H   THR B 414)   1.54527   1.16152   1.49759   1.33346
 6242  H(ATOM   6243  CA  THR B 414)   0.65880
 6243  C(ATOM   6244  HA  THR B 414)   1.07871   0.87930   1.09392   0.95528
 6244  H(ATOM   6245  CB  THR B 414)   0.80396
 6245  C(ATOM   6246  HB  THR B 414)   1.07805   0.99555   0.98910   0.78070
 6246  H(ATOM   6247 CG2  THR B 414)   0.87712
 6247  C(ATOM   6248 HG21 THR B 414)   1.06239   1.07012   1.19327   1.17909
 6248  H(ATOM   6249 HG22 THR B 414)   0.83066
 6249  H(ATOM   6250 HG23 THR B 414)   0.82916
 6250  H(ATOM   6251 OG1  THR B 414)   0.83496
 6251  O(ATOM   6252 HG1  THR B 414)   1.84126   1.88204   1.54707   1.29654
 6252  H(ATOM   6253  C   THR B 414)   0.65798
 6253  C(ATOM   6254  O   THR B 414)   1.08432   0.75729   0.74215   0.86776
 6254  O(ATOM   6255  N   ASP B 415)   1.88407   1.43133   1.55958   1.75417
 6255  N(ATOM   6256  H   ASP B 415)   1.55233   1.37890   1.46271   1.14602
 6256  H(ATOM   6257  CA  ASP B 415)   0.63252
 6257  C(ATOM   6258  HA  ASP B 415)   1.07126   0.98306   1.09160   0.79799
 6258  H(ATOM   6259  CB  ASP B 415)   0.81055
 6259  C(ATOM   6260 HB2  ASP B 415)   1.07903   1.09393   1.10465   1.13647
 6260  H(ATOM   6261 HB3  ASP B 415)   0.81940
 6261  H(ATOM   6262  CG  ASP B 415)   0.82286
 6262  C(ATOM   6263 OD1  ASP B 415)   1.07185   0.79311   0.71528   0.64534
 6263  O(ATOM   6264 OD2  ASP B 415)   1.88662   1.80716   1.44920   1.62798
 6264  O(ATOM   6265  C   ASP B 415)   1.88495   1.75658   1.57417   1.66675
 6265  C(ATOM   6266  O   ASP B 415)   1.09435   0.83897   0.73403   0.76970
 6266  O(ATOM   6267  N   GLY B 416)   1.88383   1.73437   1.63649   1.38217
 6267  N(ATOM   6268  H   GLY B 416)   1.54344   1.24184   1.41372   1.34577
 6268  H(ATOM   6269  CA  GLY B 416)   0.66026
 6269  C(ATOM   6270 HA2  GLY B 416)   1.07199   0.83643   1.04974   1.17582
 6270  H(ATOM   6271 HA3  GLY B 416)   0.81003
 6271  H(ATOM   6272  C   GLY B 416)   0.80674
 6272  C(ATOM   6273  O   GLY B 416)   1.08431   0.84622   0.77908   0.70141
 6273  O(ATOM   6274  N   VAL B 417)   1.87996   1.40123   1.76169   1.63220
 6274  N(ATOM   6275  H   VAL B 417)   1.55027   1.21084   1.20698   1.55383
 6275  H(ATOM   6276  CA  VAL B 417)   0.65702
 6276  C(ATOM   6277  HA  VAL B 417)   1.07858   0.99345   0.94660   0.99060
 6277  H(ATOM   6278  CB  VAL B 417)   0.82493
 6278  C(ATOM   6279  HB  VAL B 417)   1.05995   1.09035   0.96405   0.97242
 6279  H(ATOM   6280 CG1  VAL B 417)   0.84241
 6280  C(ATOM   6281 HG11 VAL B 417)   1.05769   1.11985   1.10514   1.18724
 6281  H(ATOM   6282 HG12 VAL B 417)   0.84324
 6282  H(ATOM   6283 HG13 VAL B 417)   0.83214
 6283  H(ATOM   6284 CG2  VAL B 417)   0.84108
 6284  C(ATOM   6285 HG21 VAL B 417)   1.05670   1.18172   1.17748   1.04523
 6285  H(ATOM   6286 HG22 VAL B 417)   0.84668
 6286  H(ATOM   6287 HG23 VAL B 417)   0.84049
 6287  H(ATOM   6288  C   VAL B 417)   0.85359
 6288  C(ATOM   6289  O   VAL B 417)   1.08062   0.75564   0.72060   0.84850
 6289  O(ATOM   6290  N   LEU B 418)   1.87733   1.48121   1.62162   1.69956
 6290  N(ATOM   6291  H   LEU B 418)   1.54849   1.17982   1.60490   1.18821
 6291  H(ATOM   6292  CA  LEU B 418)   0.64611
 6292  C(ATOM   6293  HA  LEU B 418)   1.07614   1.05045   0.99835   0.85000
 6293  H(ATOM   6294  CB  LEU B 418)   0.82886
 6294  C(ATOM   6295 HB2  LEU B 418)   1.06862   0.98100   1.18788   1.08000
 6295  H(ATOM   6296 HB3  LEU B 418)   0.83429
 6296  H(ATOM   6297  CG  LEU B 418)   0.83461
 6297  C(ATOM   6298  HG  LEU B 418)   1.04965   1.00902   1.03645   0.95297
 6298  H(ATOM   6299 CD1  LEU B 418)   0.86830
 6299  C(ATOM   6300 HD11 LEU B 418)   1.05631   1.17751   1.07722   1.15056
 6300  H(ATOM   6301 HD12 LEU B 418)   0.86379
 6301  H(ATOM   6302 HD13 LEU B 418)   0.84409
 6302  H(ATOM   6303 CD2  LEU B 418)   0.84314
 6303  C(ATOM   6304 HD21 LEU B 418)   1.05547   1.05397   1.17315   1.16861
 6304  H(ATOM   6305 HD22 LEU B 418)   0.85070
 6305  H(ATOM   6306 HD23 LEU B 418)   0.85333
 6306  H(ATOM   6307  C   LEU B 418)   0.85322
 6307  C(ATOM   6308  O   LEU B 418)   1.08569   0.71344   0.86899   0.73672
 6308  O(ATOM   6309  N   GLN B 419)   1.87954   1.60499   1.57012   1.59146
 6309  N(ATOM   6310  H   GLN B 419)   1.55150   1.52863   1.17162   1.31133
 6310  H(ATOM   6311  CA  GLN B 419)   0.64764
 6311  C(ATOM   6312  HA  GLN B 419)   1.07785   0.99477   0.88192   1.02944
 6312  H(ATOM   6313  CB  GLN B 419)   0.81442
 6313  C(ATOM   6314 HB2  GLN B 419)   1.05947   0.95281   1.18065   1.06673
 6314  H(ATOM   6315 HB3  GLN B 419)   0.83667
 6315  H(ATOM   6316  CG  GLN B 419)   0.82404
 6316  C(ATOM   6317 HG2  GLN B 419)   1.06731   1.14371   1.12432   1.00482
 6317  H(ATOM   6318 HG3  GLN B 419)   0.82734
 6318  H(ATOM   6319  CD  GLN B 419)   0.81058
 6319  C(ATOM   6320 OE1  GLN B 419)   1.06818   0.69734   0.79005   0.83028
 6320  O(ATOM   6321 NE2  GLN B 419)   1.87497   1.66576   1.29805   1.89748
 6321  N(ATOM   6322 HE21 GLN B 419)   1.53058   1.65980   1.22323   1.19090
 6322  H(ATOM   6323 HE22 GLN B 419)   0.66785
 6323  H(ATOM   6324  C   GLN B 419)   0.65243
 6324  C(ATOM   6325  O   GLN B 419)   1.08623   0.75186   0.78005   0.81277
 6325  O(ATOM   6326  N   GLY B 420)   1.88208   1.71868   1.30149   1.76112
 6326  N(ATOM   6327  H   GLY B 420)   1.53946   1.44620   1.21897   1.30511
 6327  H(ATOM   6328  CA  GLY B 420)   0.65944
 6328  C(ATOM   6329 HA2  GLY B 420)   1.06744   1.06025   1.06382   0.95565
 6329  H(ATOM   6330 HA3  GLY B 420)   0.82011
 6330  H(ATOM   6331  C   GLY B 420)   0.81326
 6331  C(ATOM   6332  O   GLY B 420)   1.07756   0.75625   0.84110   0.75519
 6332  O(ATOM   6333  N   LYS B 421)   1.88734   1.70925   1.34194   1.65337
 6333  N(ATOM   6334  H   LYS B 421)   1.54500   1.41704   1.23784   1.34626
 6334  H(ATOM   6335  CA  LYS B 421)   0.66480
 6335  C(ATOM   6336  HA  LYS B 421)   1.07467   0.95029   1.00241   0.93461
 6336  H(ATOM   6337  CB  LYS B 421)   0.81357
 6337  C(ATOM   6338 HB2  LYS B 421)   1.06458   1.01937   1.07784   1.13422
 6338  H(ATOM   6339 HB3  LYS B 421)   0.84928
 6339  H(ATOM   6340  CG  LYS B 421)   0.83356
 6340  C(ATOM   6341 HG2  LYS B 421)   1.05618   1.00636   1.06804   1.13198
 6341  H(ATOM   6342 HG3  LYS B 421)   0.84608
 6342  H(ATOM   6343  CD  LYS B 421)   0.84729
 6343  C(ATOM   6344 HD2  LYS B 421)   1.06129   1.03096   1.05471   1.15108
 6344  H(ATOM   6345 HD3  LYS B 421)   0.83800
 6345  H(ATOM   6346  CE  LYS B 421)   0.84147
 6346  C(ATOM   6347 HE2  LYS B 421)   1.07440   0.89029   1.10605   1.10981
 6347  H(ATOM   6348 HE3  LYS B 421)   0.81906
 6348  H(ATOM   6349  NZ  LYS B 421)   0.82093
 6349  N(ATOM   6350 HZ1  LYS B 421)   1.45964   1.19661   1.26892   1.27261
 6350  H(ATOM   6351 HZ2  LYS B 421)   0.68674
 6351  H(ATOM   6352 HZ3  LYS B 421)   0.69340
 6352  H(ATOM   6353  C   LYS B 421)   0.69056
 6353  C(ATOM   6354  O   LYS B 421)   1.08236   0.72156   0.77221   0.84338
 6354  O(ATOM   6355  N   ARG B 422)   1.88019   1.61069   1.34077   1.83202
 6355  N(ATOM   6356  H   ARG B 422)   1.55049   1.62782   1.20820   1.15271
 6356  H(ATOM   6357  CA  ARG B 422)   0.64310
 6357  C(ATOM   6358  HA  ARG B 422)   1.07639   1.00983   1.09472   0.80388
 6358  H(ATOM   6359  CB  ARG B 422)   0.82587
 6359  C(ATOM   6360 HB2  ARG B 422)   1.06118   1.03612   1.19723   0.98373
 6360  H(ATOM   6361 HB3  ARG B 422)   0.83226
 6361  H(ATOM   6362  CG  ARG B 422)   0.82759
 6362  C(ATOM   6363 HG2  ARG B 422)   1.06041   1.05450   1.18445   1.00501
 6363  H(ATOM   6364 HG3  ARG B 422)   0.83653
 6364  H(ATOM   6365  CD  ARG B 422)   0.83786
 6365  C(ATOM   6366 HD2  ARG B 422)   1.06455   1.05694   1.18332   0.74610
 6366  H(ATOM   6367 HD3  ARG B 422)   0.83372
 6367  H(ATOM   6368  NE  ARG B 422)   0.82638
 6368  N(ATOM   6369  HE  ARG B 422)   1.52952   1.16296   1.70630   1.13336
 6369  H(ATOM   6370  CZ  ARG B 422)   0.65134
 6370  C(ATOM   6371 NH1  ARG B 422)   0.97446   0.79697   0.84582   0.78962
 6371  N(ATOM   6372 HH11 ARG B 422)   1.51757   1.11929   1.66326   1.27798
 6372  H(ATOM   6373 HH12 ARG B 422)   0.63828
 6373  H(ATOM   6374 NH2  ARG B 422)   0.64035
 6374  N(ATOM   6375 HH21 ARG B 422)   1.50924   1.24619   1.73492   1.10790
 6375  H(ATOM   6376 HH22 ARG B 422)   0.64018
 6376  H(ATOM   6377  C   ARG B 422)   0.64999
 6377  C(ATOM   6378  O   ARG B 422)   1.07969   0.76766   0.82330   0.75092
 6378  O(ATOM   6379  N   GLN B 423)   1.87801   1.76285   1.39633   1.59525
 6379  N(ATOM   6380  H   GLN B 423)   1.54535   1.37263   1.27264   1.34091
 6380  H(ATOM   6381  CA  GLN B 423)   0.66430
 6381  C(ATOM   6382  HA  GLN B 423)   1.07550   0.93402   1.00840   0.97676
 6382  H(ATOM   6383  CB  GLN B 423)   0.81505
 6383  C(ATOM   6384 HB2  GLN B 423)   1.06300   0.98572   1.08655   1.14032
 6384  H(ATOM   6385 HB3  GLN B 423)   0.81553
 6385  H(ATOM   6386  CG  GLN B 423)   0.83654
 6386  C(ATOM   6387 HG2  GLN B 423)   1.07044   1.10753   1.09249   1.10082
 6387  H(ATOM   6388 HG3  GLN B 423)   0.83109
 6388  H(ATOM   6389  CD  GLN B 423)   0.82915
 6389  C(ATOM   6390 OE1  GLN B 423)   1.06807   0.80353   0.71723   0.80508
 6390  O(ATOM   6391 NE2  GLN B 423)   1.87934   1.33350   1.55940   1.87752
 6391  N(ATOM   6392 HE21 GLN B 423)   1.53079   1.26851   1.63986   1.18847
 6392  H(ATOM   6393 HE22 GLN B 423)   0.66482
 6393  H(ATOM   6394  C   GLN B 423)   0.66290
 6394  C(ATOM   6395  O   GLN B 423)   1.07225   0.72594   0.76189   0.85515
 6395  O(ATOM   6396  N   TRP B 424)   1.88228   1.63574   1.40995   1.74116
 6396  N(ATOM   6397  H   TRP B 424)   1.54242   1.57169   1.22542   1.17504
 6397  H(ATOM   6398  CA  TRP B 424)   0.64247
 6398  C(ATOM   6399  HA  TRP B 424)   1.07586   0.97252   1.09656   0.83260
 6399  H(ATOM   6400  CB  TRP B 424)   0.83450
 6400  C(ATOM   6401 HB2  TRP B 424)   1.04987   0.96463   1.10493   1.13077
 6401  H(ATOM   6402 HB3  TRP B 424)   0.83185
 6402  H(ATOM   6403  CG  TRP B 424)   0.82262
 6403  C(ATOM   6404 CD1  TRP B 424)   1.05573   0.97921   1.08734   0.98813
 6404  C(ATOM   6405 HD1  TRP B 424)   1.08633   0.84030   1.02202   1.08300
 6405  H(ATOM   6406 NE1  TRP B 424)   0.78508
 6406  N(ATOM   6407 HE1  TRP B 424)   1.51081   1.17157   1.53187   1.18265
 6407  H(ATOM   6408 CE2  TRP B 424)   0.69579
 6408  C(ATOM   6409 CZ2  TRP B 424)   1.05312   1.00797   0.99216   0.85059
 6409  C(ATOM   6410 HZ2  TRP B 424)   1.07461   1.05830   1.10079   1.01463
 6410  H(ATOM   6411 CH2  TRP B 424)   0.83176
 6411  C(ATOM   6412 HH2  TRP B 424)   1.08892   1.04183   0.96534   1.00747
 6412  H(ATOM   6413 CZ3  TRP B 424)   0.83616
 6413  C(ATOM   6414 HZ3  TRP B 424)   1.08373   1.00012   1.06998   1.07977
 6414  H(ATOM   6415 CE3  TRP B 424)   0.84946
 6415  C(ATOM   6416 HE3  TRP B 424)   1.09302   1.05811   0.98378   0.97684
 6416  H(ATOM   6417 CD2  TRP B 424)   0.82590
 6417  C(ATOM   6418  C   TRP B 424)   1.06922   0.97921   1.04639   0.99581
 6418  C(ATOM   6419  O   TRP B 424)   1.08156   0.82584   0.79601   0.76343
 6419  O(ATOM   6420  N   ASP B 425)   1.88552   1.82561   1.39837   1.42529
 6420  N(ATOM   6421  H   ASP B 425)   1.54924   1.14310   1.46891   1.39145
 6421  H(ATOM   6422  CA  ASP B 425)   0.68209
 6422  C(ATOM   6423  HA  ASP B 425)   1.07347   0.78454   1.10495   0.99459
 6423  H(ATOM   6424  CB  ASP B 425)   0.85614
 6424  C(ATOM   6425 HB2  ASP B 425)   1.07581   1.17702   1.10902   1.03128
 6425  H(ATOM   6426 HB3  ASP B 425)   0.81558
 6426  H(ATOM   6427  CG  ASP B 425)   0.81721
 6427  C(ATOM   6428 OD1  ASP B 425)   1.08405   0.66881   0.76968   0.73071
 6428  O(ATOM   6429 OD2  ASP B 425)   1.88867   1.57449   1.60690   1.79833
 6429  O(ATOM   6430  C   ASP B 425)   1.88652   1.61910   1.87677   1.45818
 6430  C(ATOM   6431  O   ASP B 425)   1.07934   0.76335   0.82789   0.77746
 6431  O(ATOM   6432  N   LEU B 426)   1.89856   1.57688   1.20170   1.81668
 6432  N(ATOM   6433  H   LEU B 426)   1.54326   1.49604   1.26377   1.22078
 6433  H(ATOM   6434  CA  LEU B 426)   0.68706
 6434  C(ATOM   6435  HA  LEU B 426)   1.07306   0.87873   1.14352   0.87649
 6435  H(ATOM   6436  CB  LEU B 426)   0.76476
 6436  C(ATOM   6437 HB2  LEU B 426)   1.06623   1.07683   1.14685   1.03728
 6437  H(ATOM   6438 HB3  LEU B 426)   0.85364
 6438  H(ATOM   6439  CG  LEU B 426)   0.85372
 6439  C(ATOM   6440  HG  LEU B 426)   1.05034   0.98273   0.99244   1.00022
 6440  H(ATOM   6441 CD1  LEU B 426)   0.84835
 6441  C(ATOM   6442 HD11 LEU B 426)   1.05877   1.16219   1.15445   1.11353
 6442  H(ATOM   6443 HD12 LEU B 426)   0.85689
 6443  H(ATOM   6444 HD13 LEU B 426)   0.86896
 6444  H(ATOM   6445 CD2  LEU B 426)   0.85931
 6445  C(ATOM   6446 HD21 LEU B 426)   1.05651   1.15397   1.04582   1.20209
 6446  H(ATOM   6447 HD22 LEU B 426)   0.79819
 6447  H(ATOM   6448 HD23 LEU B 426)   0.87076
 6448  H(ATOM   6449  C   LEU B 426)   0.86902
 6449  C(ATOM   6450  O   LEU B 426)   1.09364   0.85520   0.73642   0.73301
 6450  O(ATOM   6451  N   VAL B 427)   1.88176   1.86507   1.44462   1.51011
 6451  N(ATOM   6452  H   VAL B 427)   1.54455   1.11468   1.40403   1.44991
 6452  H(ATOM   6453  CA  VAL B 427)   0.66067
 6453  C(ATOM   6454  HA  VAL B 427)   1.08110   0.80755   1.10736   1.03848
 6454  H(ATOM   6455  CB  VAL B 427)   0.84546
 6455  C(ATOM   6456  HB  VAL B 427)   1.05746   1.08193   0.98365   0.96832
 6456  H(ATOM   6457 CG1  VAL B 427)   0.88126
 6457  C(ATOM   6458 HG11 VAL B 427)   1.05540   1.18601   1.15294   1.05130
 6458  H(ATOM   6459 HG12 VAL B 427)   0.82147
 6459  H(ATOM   6460 HG13 VAL B 427)   0.86507
 6460  H(ATOM   6461 CG2  VAL B 427)   0.85998
 6461  C(ATOM   6462 HG21 VAL B 427)   1.05662   1.20314   1.02869   1.17105
 6462  H(ATOM   6463 HG22 VAL B 427)   0.85986
 6463  H(ATOM   6464 HG23 VAL B 427)   0.87106
 6464  H(ATOM   6465  C   VAL B 427)   0.79319
 6465  C(ATOM   6466  O   VAL B 427)   1.08565   0.74207   0.63908   0.80134
 6466  O(ATOM   6468  CA  CA  X 428)   1.88071   1.68521   1.60500   1.61447
 6467  O(ATOM   6469 NA+  NA+ X 429)   1.88509   1.38358   1.72027   1.88738
 6468  C(ATOM   6470 NA+  NA+ X 430)   1.98720   0.79346   0.58933   0.05439
 6469  N(ATOM   6471 NA+  NA+ X 431)   1.99994   0.58594   1.92577   1.48836
 6470  N(ATOM   6472 NA+  NA+ X 432)   1.99539   1.64442   0.89154   1.52621
 6471  N(ATOM   6473 NA+  NA+ X 433)   1.99777   0.84991   1.83102   1.32971
 6472  N(ATOM   6474 NA+  NA+ X 434)   2.00000   1.17638   1.99810   0.82552
 6473  N(                          )   1.99999   1.64326   1.69399   0.66276
 6474  N(                          )   2.00000   1.48598   1.99322   0.52080

 **********************
 *                    *
 * JOB ENDED NORMALLY *
 *                    *
 **********************



 TOTAL JOB TIME:          9624.34 SECONDS

 == MOPAC DONE ==
