 *******************************************************************************
 **                                                                           **
 **                              MOPAC v22.1.1                                **
 **                                                                           **
 *******************************************************************************
 **          Digital Object Identifier (DOI): 10.5281/zenodo.6511958          **
 **    Visit the DOI location for information on how to cite this program.    **
 *******************************************************************************

                              PM7 CALCULATION RESULTS

 *******************************************************************************
 *  CALCULATION DONE:                                Mon Aug 12 10:21:18 2024  *
 *  COSCCH     - ADD IN COSMO CHARGE CORRECTIONS
 *  START_RES  - STARTING RESIDUE NUMBERS DEFINED
 *  Keyword:     START_RES=(1A 461B 584X) 
 *  CHAINS     - PDB CHAIN LETTERS EXPLICITLY DEFINED
 *  Keyword:     CHAINS=(ABX) 
 *  OLDCAV
 *  T=         - A TIME OF 172800.0 SECONDS REQUESTED
 *  DUMP=N     - RESTART FILE WRITTEN EVERY 7200.0 SECONDS REQUESTED
 *  AUX        - OUTPUT AUXILIARY INFORMATION
 *  VECTORS    - FINAL EIGENVECTORS TO BE PRINTED
 *  LARGE      - EXPANDED OUTPUT TO BE PRINTED
 *******************************************************************************
 START_RES=(1A 461B 584X)  CHAINS=(ABX) AUX LARGE VECTORS COSCCH OLDCAV


   ATOM                 CHEMICAL                   X               Y               Z
  NUMBER                 SYMBOL               (ANGSTROMS)     (ANGSTROMS)     (ANGSTROMS)
 
     1       N(ATOM      1  N   SER A   1)   71.41900000  *  41.87600000  *  25.68200000  *
     2       H(ATOM      2  H1  SER A   1)   71.69300000  *  41.21000000  *  26.39000000  *
     3       H(ATOM      3  H2  SER A   1)   71.90700000  *  41.66300000  *  24.82300000  *
     4       H(ATOM      4  H3  SER A   1)   70.42600000  *  41.79200000  *  25.52100000  *
     5       C(ATOM      5  CA  SER A   1)   71.73100000  *  43.24000000  *  26.13600000  *
     6       H(ATOM      6  HA  SER A   1)   72.81100000  *  43.31500000  *  26.26700000  *
     7       C(ATOM      7  CB  SER A   1)   71.34100000  *  44.30800000  *  25.10800000  *
     8       H(ATOM      8 HB2  SER A   1)   71.90100000  *  44.14500000  *  24.18700000  *
     9       H(ATOM      9 HB3  SER A   1)   70.27400000  *  44.26200000  *  24.88700000  *
    10       O(ATOM     10  OG  SER A   1)   71.65100000  *  45.58200000  *  25.62300000  *
    11       H(ATOM     11  HG  SER A   1)   71.53000000  *  46.24600000  *  24.94000000  *
    12       C(ATOM     12  C   SER A   1)   71.13100000  *  43.44000000  *  27.51900000  *
    13       O(ATOM     13  O   SER A   1)   71.77500000  *  43.06000000  *  28.49300000  *
    14       N(ATOM     14  N   LEU A   2)   69.87900000  *  43.89000000  *  27.64600000  *
    15       H(ATOM     15  H   LEU A   2)   69.35600000  *  44.13400000  *  26.81600000  *
    16       C(ATOM     16  CA  LEU A   2)   69.14700000  *  43.84500000  *  28.91600000  *
    17       H(ATOM     17  HA  LEU A   2)   69.80000000  *  44.23400000  *  29.69700000  *
    18       C(ATOM     18  CB  LEU A   2)   67.89500000  *  44.74200000  *  28.84800000  *
    19       H(ATOM     19 HB2  LEU A   2)   67.22100000  *  44.34300000  *  28.09000000  *
    20       H(ATOM     20 HB3  LEU A   2)   67.38200000  *  44.67900000  *  29.80800000  *
    21       C(ATOM     21  CG  LEU A   2)   68.15900000  *  46.22900000  *  28.53500000  *
    22       H(ATOM     22  HG  LEU A   2)   68.56300000  *  46.31900000  *  27.52600000  *
    23       C(ATOM     23 CD1  LEU A   2)   66.84500000  *  47.00600000  *  28.60200000  *
    24       H(ATOM     24 HD11 LEU A   2)   66.43200000  *  46.96800000  *  29.61100000  *
    25       H(ATOM     25 HD12 LEU A   2)   67.02000000  *  48.04400000  *  28.32000000  *
    26       H(ATOM     26 HD13 LEU A   2)   66.12500000  *  46.57400000  *  27.90600000  *
    27       C(ATOM     27 CD2  LEU A   2)   69.13800000  *  46.87600000  *  29.51900000  *
    28       H(ATOM     28 HD21 LEU A   2)   70.13000000  *  46.44200000  *  29.40000000  *
    29       H(ATOM     29 HD22 LEU A   2)   69.21400000  *  47.94300000  *  29.31000000  *
    30       H(ATOM     30 HD23 LEU A   2)   68.79500000  *  46.73500000  *  30.54400000  *
    31       C(ATOM     31  C   LEU A   2)   68.77900000  *  42.40500000  *  29.32000000  *
    32       O(ATOM     32  O   LEU A   2)   68.42600000  *  41.57500000  *  28.47800000  *
    33       N(ATOM     33  N   ASP A   3)   68.83100000  *  42.12800000  *  30.61900000  *
    34       H(ATOM     34  H   ASP A   3)   69.21300000  *  42.82800000  *  31.23900000  *
    35       C(ATOM     35  CA  ASP A   3)   68.14100000  *  41.02100000  *  31.28900000  *
    36       H(ATOM     36  HA  ASP A   3)   67.24100000  *  40.76600000  *  30.73000000  *
    37       C(ATOM     37  CB  ASP A   3)   69.03700000  *  39.76500000  *  31.36200000  *
    38       H(ATOM     38 HB2  ASP A   3)   69.38600000  *  39.52900000  *  30.35700000  *
    39       H(ATOM     39 HB3  ASP A   3)   69.91100000  *  39.97500000  *  31.97900000  *
    40       C(ATOM     40  CG  ASP A   3)   68.31300000  *  38.52600000  *  31.91500000  *
    41       O(ATOM     41 OD1  ASP A   3)   67.10200000  *  38.61200000  *  32.22300000  *
    42       O(ATOM     42 OD2  ASP A   3)   68.91700000  *  37.42900000  *  31.94800000  *
    43       C(ATOM     43  C   ASP A   3)   67.72700000  *  41.54000000  *  32.67500000  *
    44       O(ATOM     44  O   ASP A   3)   68.58400000  *  41.83300000  *  33.50600000  *
    45       N(ATOM     45  N   ILE A   4)   66.42800000  *  41.77800000  *  32.87700000  *
    46       H(ATOM     46  H   ILE A   4)   65.77900000  *  41.52800000  *  32.14600000  *
    47       C(ATOM     47  CA  ILE A   4)   65.88200000  *  42.47900000  *  34.05100000  *
    48       H(ATOM     48  HA  ILE A   4)   66.66600000  *  42.59600000  *  34.79800000  *
    49       C(ATOM     49  CB  ILE A   4)   65.38100000  *  43.89800000  *  33.67700000  *
    50       H(ATOM     50  HB  ILE A   4)   64.67200000  *  43.81000000  *  32.85400000  *
    51       C(ATOM     51 CG2  ILE A   4)   64.65000000  *  44.55500000  *  34.86500000  *
    52       H(ATOM     52 HG21 ILE A   4)   65.32900000  *  44.66400000  *  35.71100000  *
    53       H(ATOM     53 HG22 ILE A   4)   64.27100000  *  45.53800000  *  34.58200000  *
    54       H(ATOM     54 HG23 ILE A   4)   63.78700000  *  43.96300000  *  35.17000000  *
    55       C(ATOM     55 CG1  ILE A   4)   66.56200000  *  44.78700000  *  33.21300000  *
    56       H(ATOM     56 HG12 ILE A   4)   67.25000000  *  44.93700000  *  34.04400000  *
    57       H(ATOM     57 HG13 ILE A   4)   67.10500000  *  44.27600000  *  32.41800000  *
    58       C(ATOM     58 CD1  ILE A   4)   66.14800000  *  46.15500000  *  32.65400000  *
    59       H(ATOM     59 HD11 ILE A   4)   65.72700000  *  46.78200000  *  33.44000000  *
    60       H(ATOM     60 HD12 ILE A   4)   67.02700000  *  46.65800000  *  32.25100000  *
    61       H(ATOM     61 HD13 ILE A   4)   65.41700000  *  46.02300000  *  31.85600000  *
    62       C(ATOM     62  C   ILE A   4)   64.78100000  *  41.61100000  *  34.66000000  *
    63       O(ATOM     63  O   ILE A   4)   63.75700000  *  41.35000000  *  34.02000000  *
    64       N(ATOM     64  N   GLN A   5)   65.01400000  *  41.15000000  *  35.89000000  *
    65       H(ATOM     65  H   GLN A   5)   65.87000000  *  41.43600000  *  36.34100000  *
    66       C(ATOM     66  CA  GLN A   5)   64.18000000  *  40.18700000  *  36.61800000  *
    67       H(ATOM     67  HA  GLN A   5)   63.17100000  *  40.19900000  *  36.20500000  *
    68       C(ATOM     68  CB  GLN A   5)   64.75800000  *  38.76900000  *  36.46000000  *
    69       H(ATOM     69 HB2  GLN A   5)   65.72900000  *  38.72100000  *  36.95300000  *
    70       H(ATOM     70 HB3  GLN A   5)   64.08700000  *  38.07300000  *  36.96400000  *
    71       C(ATOM     71  CG  GLN A   5)   64.93800000  *  38.32300000  *  34.99700000  *
    72       H(ATOM     72 HG2  GLN A   5)   63.99300000  *  38.41900000  *  34.46100000  *
    73       H(ATOM     73 HG3  GLN A   5)   65.67700000  *  38.96000000  *  34.51200000  *
    74       C(ATOM     74  CD  GLN A   5)   65.40600000  *  36.87700000  *  34.89900000  *
    75       O(ATOM     75 OE1  GLN A   5)   64.91200000  *  35.99600000  *  35.58900000  *
    76       N(ATOM     76 NE2  GLN A   5)   66.35800000  *  36.58000000  *  34.04700000  *
    77       H(ATOM     77 HE21 GLN A   5)   66.75700000  *  35.65300000  *  34.09300000  *
    78       H(ATOM     78 HE22 GLN A   5)   66.75300000  *  37.29700000  *  33.45600000  *
    79       C(ATOM     79  C   GLN A   5)   64.09600000  *  40.57100000  *  38.10500000  *
    80       O(ATOM     80  O   GLN A   5)   64.99900000  *  41.22000000  *  38.63700000  *
    81       N(ATOM     81  N   SER A   6)   63.01800000  *  40.17500000  *  38.78500000  *
    82       H(ATOM     82  H   SER A   6)   62.35200000  *  39.56400000  *  38.33300000  *
    83       C(ATOM     83  CA  SER A   6)   62.67100000  *  40.63700000  *  40.13600000  *
    84       H(ATOM     84  HA  SER A   6)   63.57800000  *  40.90000000  *  40.68100000  *
    85       C(ATOM     85  CB  SER A   6)   61.80000000  *  41.89500000  *  40.01800000  *
    86       H(ATOM     86 HB2  SER A   6)   62.38100000  *  42.68100000  *  39.53600000  *
    87       H(ATOM     87 HB3  SER A   6)   60.92800000  *  41.67800000  *  39.40000000  *
    88       O(ATOM     88  OG  SER A   6)   61.36700000  *  42.35700000  *  41.28100000  *
    89       H(ATOM     89  HG  SER A   6)   60.47200000  *  42.04900000  *  41.43600000  *
    90       C(ATOM     90  C   SER A   6)   61.94000000  *  39.54800000  *  40.92300000  *
    91       O(ATOM     91  O   SER A   6)   61.18300000  *  38.76800000  *  40.34900000  *
    92       N(ATOM     92  N   LEU A   7)   62.17200000  *  39.49700000  *  42.23500000  *
    93       H(ATOM     93  H   LEU A   7)   62.82400000  *  40.16400000  *  42.62300000  *
    94       C(ATOM     94  CA  LEU A   7)   61.58400000  *  38.54700000  *  43.17700000  *
    95       H(ATOM     95  HA  LEU A   7)   60.74700000  *  38.03300000  *  42.70300000  *
    96       C(ATOM     96  CB  LEU A   7)   62.66500000  *  37.50200000  *  43.53200000  *
    97       H(ATOM     97 HB2  LEU A   7)   62.83600000  *  36.87300000  *  42.65900000  *
    98       H(ATOM     98 HB3  LEU A   7)   63.59300000  *  38.03200000  *  43.74800000  *
    99       C(ATOM     99  CG  LEU A   7)   62.35400000  *  36.60100000  *  44.74200000  *
   100       H(ATOM    100  HG  LEU A   7)   62.24500000  *  37.21500000  *  45.63600000  *
   101       C(ATOM    101 CD1  LEU A   7)   61.08100000  *  35.77900000  *  44.54400000  *
   102       H(ATOM    102 HD11 LEU A   7)   61.19500000  *  35.09600000  *  43.70300000  *
   103       H(ATOM    103 HD12 LEU A   7)   60.87500000  *  35.21100000  *  45.45100000  *
   104       H(ATOM    104 HD13 LEU A   7)   60.22800000  *  36.43200000  *  44.36100000  *
   105       C(ATOM    105 CD2  LEU A   7)   63.52000000  *  35.63600000  *  44.97100000  *
   106       H(ATOM    106 HD21 LEU A   7)   64.44900000  *  36.19700000  *  45.07000000  *
   107       H(ATOM    107 HD22 LEU A   7)   63.35400000  *  35.07200000  *  45.89000000  *
   108       H(ATOM    108 HD23 LEU A   7)   63.60800000  *  34.94300000  *  44.13500000  *
   109       C(ATOM    109  C   LEU A   7)   61.05400000  *  39.29700000  *  44.41000000  *
   110       O(ATOM    110  O   LEU A   7)   61.82900000  *  39.91700000  *  45.13400000  *
   111       N(ATOM    111  N   ASP A   8)   59.74700000  *  39.20200000  *  44.66100000  *
   112       H(ATOM    112  H   ASP A   8)   59.16700000  *  38.70000000  *  44.00500000  *
   113       C(ATOM    113  CA  ASP A   8)   59.07500000  *  39.71900000  *  45.86000000  *
   114       H(ATOM    114  HA  ASP A   8)   59.80000000  *  39.83100000  *  46.66600000  *
   115       C(ATOM    115  CB  ASP A   8)   58.47700000  *  41.11100000  *  45.56800000  *
   116       H(ATOM    116 HB2  ASP A   8)   59.28000000  *  41.76500000  *  45.22900000  *
   117       H(ATOM    117 HB3  ASP A   8)   57.75800000  *  41.02400000  *  44.75300000  *
   118       C(ATOM    118  CG  ASP A   8)   57.78700000  *  41.79300000  *  46.76100000  *
   119       O(ATOM    119 OD1  ASP A   8)   57.90400000  *  41.33100000  *  47.91400000  *
   120       O(ATOM    120 OD2  ASP A   8)   57.14600000  *  42.85200000  *  46.53700000  *
   121       C(ATOM    121  C   ASP A   8)   58.01100000  *  38.71100000  *  46.32000000  *
   122       O(ATOM    122  O   ASP A   8)   56.97600000  *  38.55000000  *  45.67000000  *
   123       N(ATOM    123  N   ILE A   9)   58.27900000  *  38.00000000  *  47.41700000  *
   124       H(ATOM    124  H   ILE A   9)   59.14500000  *  38.19400000  *  47.89900000  *
   125       C(ATOM    125  CA  ILE A   9)   57.32100000  *  37.10100000  *  48.07800000  *
   126       H(ATOM    126  HA  ILE A   9)   56.33400000  *  37.25600000  *  47.64300000  *
   127       C(ATOM    127  CB  ILE A   9)   57.66800000  *  35.60200000  *  47.91300000  *
   128       H(ATOM    128  HB  ILE A   9)   58.64200000  *  35.41800000  *  48.36800000  *
   129       C(ATOM    129 CG2  ILE A   9)   56.61600000  *  34.74800000  *  48.65400000  *
   130       H(ATOM    130 HG21 ILE A   9)   55.61900000  *  34.95300000  *  48.26400000  *
   131       H(ATOM    131 HG22 ILE A   9)   56.83000000  *  33.68500000  *  48.53800000  *
   132       H(ATOM    132 HG23 ILE A   9)   56.63200000  *  34.96000000  *  49.72300000  *
   133       C(ATOM    133 CG1  ILE A   9)   57.73700000  *  35.19400000  *  46.42300000  *
   134       H(ATOM    134 HG12 ILE A   9)   56.74600000  *  35.27300000  *  45.97500000  *
   135       H(ATOM    135 HG13 ILE A   9)   58.39600000  *  35.88300000  *  45.89400000  *
   136       C(ATOM    136 CD1  ILE A   9)   58.28900000  *  33.78100000  *  46.18500000  *
   137       H(ATOM    137 HD11 ILE A   9)   57.58900000  *  33.02600000  *  46.54300000  *
   138       H(ATOM    138 HD12 ILE A   9)   58.44100000  *  33.63000000  *  45.11600000  *
   139       H(ATOM    139 HD13 ILE A   9)   59.24300000  *  33.66400000  *  46.69900000  *
   140       C(ATOM    140  C   ILE A   9)   57.26000000  *  37.52100000  *  49.54300000  *
   141       O(ATOM    141  O   ILE A   9)   58.27000000  *  37.50900000  *  50.24900000  *
   142       N(ATOM    142  N   GLN A  10)   56.07700000  *  37.95700000  *  49.97100000  *
   143       H(ATOM    143  H   GLN A  10)   55.29700000  *  37.90100000  *  49.33300000  *
   144       C(ATOM    144  CA  GLN A  10)   55.91300000  *  38.82800000  *  51.13200000  *
   145       H(ATOM    145  HA  GLN A  10)   56.76600000  *  38.70200000  *  51.79900000  *
   146       C(ATOM    146  CB  GLN A  10)   55.94600000  *  40.26500000  *  50.59700000  *
   147       H(ATOM    147 HB2  GLN A  10)   56.89700000  *  40.37900000  *  50.07800000  *
   148       H(ATOM    148 HB3  GLN A  10)   55.13900000  *  40.40100000  *  49.87700000  *
   149       C(ATOM    149  CG  GLN A  10)   55.85000000  *  41.36300000  *  51.66100000  *
   150       H(ATOM    150 HG2  GLN A  10)   54.87100000  *  41.31700000  *  52.13900000  *
   151       H(ATOM    151 HG3  GLN A  10)   56.61400000  *  41.19000000  *  52.41800000  *
   152       C(ATOM    152  CD  GLN A  10)   56.04700000  *  42.77000000  *  51.09100000  *
   153       O(ATOM    153 OE1  GLN A  10)   55.65600000  *  43.75600000  *  51.70100000  *
   154       N(ATOM    154 NE2  GLN A  10)   56.61200000  *  42.95900000  *  49.91600000  *
   155       H(ATOM    155 HE21 GLN A  10)   56.59500000  *  43.89700000  *  49.54100000  *
   156       H(ATOM    156 HE22 GLN A  10)   56.96600000  *  42.19900000  *  49.35200000  *
   157       C(ATOM    157  C   GLN A  10)   54.63200000  *  38.47800000  *  51.90300000  *
   158       O(ATOM    158  O   GLN A  10)   53.59200000  *  38.26200000  *  51.27800000  *
   159       N(ATOM    159  N   CYS A  11)   54.70100000  *  38.37800000  *  53.23200000  *
   160       H(ATOM    160  H   CYS A  11)   55.59100000  *  38.56800000  *  53.66900000  *
   161       C(ATOM    161  CA  CYS A  11)   53.61000000  *  37.91000000  *  54.09900000  *
   162       H(ATOM    162  HA  CYS A  11)   53.98900000  *  37.86000000  *  55.12000000  *
   163       C(ATOM    163  CB  CYS A  11)   52.44500000  *  38.92200000  *  54.08600000  *
   164       H(ATOM    164 HB2  CYS A  11)   52.01600000  *  38.97500000  *  53.08500000  *
   165       H(ATOM    165 HB3  CYS A  11)   51.66600000  *  38.54900000  *  54.75100000  *
   166       S(ATOM    166  SG  CYS A  11)   52.97000000  *  40.58500000  *  54.60800000  *
   167       H(ATOM    167  HG  CYS A  11)   51.75900000  *  41.14900000  *  54.62100000  *
   168       C(ATOM    168  C   CYS A  11)   53.13800000  *  36.47900000  *  53.74500000  *
   169       O(ATOM    169  O   CYS A  11)   51.94100000  *  36.25200000  *  53.56000000  *
   170       N(ATOM    170  N   GLU A  12)   54.05500000  *  35.52200000  *  53.57300000  *
   171       H(ATOM    171  H   GLU A  12)   55.02500000  *  35.74500000  *  53.74800000  *
   172       C(ATOM    172  CA  GLU A  12)   53.74600000  *  34.18300000  *  53.04000000  *
   173       H(ATOM    173  HA  GLU A  12)   52.78200000  *  33.86000000  *  53.43300000  *
   174       C(ATOM    174  CB  GLU A  12)   53.61900000  *  34.29000000  *  51.50900000  *
   175       H(ATOM    175 HB2  GLU A  12)   52.70100000  *  34.84000000  *  51.30300000  *
   176       H(ATOM    176 HB3  GLU A  12)   54.45700000  *  34.85800000  *  51.10700000  *
   177       C(ATOM    177  CG  GLU A  12)   53.57000000  *  32.92700000  *  50.79900000  *
   178       H(ATOM    178 HG2  GLU A  12)   54.56900000  *  32.49100000  *  50.79600000  *
   179       H(ATOM    179 HG3  GLU A  12)   52.91300000  *  32.26800000  *  51.36800000  *
   180       C(ATOM    180  CD  GLU A  12)   53.05900000  *  32.99400000  *  49.35600000  *
   181       O(ATOM    181 OE1  GLU A  12)   52.50100000  *  34.03800000  *  48.94000000  *
   182       O(ATOM    182 OE2  GLU A  12)   53.20100000  *  31.97500000  *  48.63500000  *
   183       C(ATOM    183  C   GLU A  12)   54.78200000  *  33.11900000  *  53.43900000  *
   184       O(ATOM    184  O   GLU A  12)   55.96100000  *  33.25600000  *  53.12200000  *
   185       N(ATOM    185  N   GLU A  13)   54.36400000  *  32.02600000  *  54.09100000  *
   186       H(ATOM    186  H   GLU A  13)   53.37600000  *  31.90500000  *  54.25800000  *
   187       C(ATOM    187  CA  GLU A  13)   55.27300000  *  30.89100000  *  54.31300000  *
   188       H(ATOM    188  HA  GLU A  13)   56.18600000  *  31.30500000  *  54.74000000  *
   189       C(ATOM    189  CB  GLU A  13)   54.72500000  *  29.89500000  *  55.35700000  *
   190       H(ATOM    190 HB2  GLU A  13)   55.57100000  *  29.32900000  *  55.74700000  *
   191       H(ATOM    191 HB3  GLU A  13)   54.29800000  *  30.46000000  *  56.18600000  *
   192       C(ATOM    192  CG  GLU A  13)   53.68100000  *  28.88900000  *  54.84400000  *
   193       H(ATOM    193 HG2  GLU A  13)   52.89300000  *  29.43500000  *  54.32400000  *
   194       H(ATOM    194 HG3  GLU A  13)   54.15600000  *  28.21100000  *  54.13400000  *
   195       C(ATOM    195  CD  GLU A  13)   53.06000000  *  28.05300000  *  55.97200000  *
   196       O(ATOM    196 OE1  GLU A  13)   53.77100000  *  27.66800000  *  56.93100000  *
   197       O(ATOM    197 OE2  GLU A  13)   51.83100000  *  27.79900000  *  55.90900000  *
   198       C(ATOM    198  C   GLU A  13)   55.66100000  *  30.22400000  *  52.97900000  *
   199       O(ATOM    199  O   GLU A  13)   54.80800000  *  29.92400000  *  52.13800000  *
   200       N(ATOM    200  N   LEU A  14)   56.96100000  *  29.98500000  *  52.77500000  *
   201       H(ATOM    201  H   LEU A  14)   57.61100000  *  30.35200000  *  53.45500000  *
   202       C(ATOM    202  CA  LEU A  14)   57.47400000  *  29.54600000  *  51.47200000  *
   203       H(ATOM    203  HA  LEU A  14)   56.89300000  *  30.03800000  *  50.69200000  *
   204       C(ATOM    204  CB  LEU A  14)   58.94600000  *  29.98300000  *  51.31100000  *
   205       H(ATOM    205 HB2  LEU A  14)   59.55000000  *  29.44200000  *  52.03900000  *
   206       H(ATOM    206 HB3  LEU A  14)   59.28200000  *  29.68700000  *  50.31800000  *
   207       C(ATOM    207  CG  LEU A  14)   59.20800000  *  31.49300000  *  51.49300000  *
   208       H(ATOM    208  HG  LEU A  14)   58.91800000  *  31.79400000  *  52.49900000  *
   209       C(ATOM    209 CD1  LEU A  14)   60.70300000  *  31.77500000  *  51.33100000  *
   210       H(ATOM    210 HD11 LEU A  14)   61.02500000  *  31.52200000  *  50.32100000  *
   211       H(ATOM    211 HD12 LEU A  14)   60.89500000  *  32.83100000  *  51.52000000  *
   212       H(ATOM    212 HD13 LEU A  14)   61.26400000  *  31.18200000  *  52.05400000  *
   213       C(ATOM    213 CD2  LEU A  14)   58.45300000  *  32.35300000  *  50.48100000  *
   214       H(ATOM    214 HD21 LEU A  14)   57.38100000  *  32.27000000  *  50.66100000  *
   215       H(ATOM    215 HD22 LEU A  14)   58.72900000  *  33.40000000  *  50.60800000  *
   216       H(ATOM    216 HD23 LEU A  14)   58.68200000  *  32.03500000  *  49.46400000  *
   217       C(ATOM    217  C   LEU A  14)   57.30600000  *  28.03400000  *  51.23700000  *
   218       O(ATOM    218  O   LEU A  14)   56.74000000  *  27.64300000  *  50.22100000  *
   219       N(ATOM    219  N   SER A  15)   57.80800000  *  27.20800000  *  52.16700000  *
   220       H(ATOM    220  H   SER A  15)   58.20000000  *  27.66900000  *  52.97600000  *
   221       C(ATOM    221  CA  SER A  15)   58.00900000  *  25.74000000  *  52.09200000  *
   222       H(ATOM    222  HA  SER A  15)   58.08900000  *  25.39000000  *  53.12100000  *
   223       C(ATOM    223  CB  SER A  15)   56.83700000  *  24.96100000  *  51.46600000  *
   224       H(ATOM    224 HB2  SER A  15)   56.91100000  *  23.91500000  *  51.76500000  *
   225       H(ATOM    225 HB3  SER A  15)   55.89100000  *  25.35800000  *  51.83400000  *
   226       O(ATOM    226  OG  SER A  15)   56.87200000  *  25.02300000  *  50.05400000  *
   227       H(ATOM    227  HG  SER A  15)   56.70100000  *  25.94700000  *  49.85600000  *
   228       C(ATOM    228  C   SER A  15)   59.32700000  *  25.36300000  *  51.39600000  *
   229       O(ATOM    229  O   SER A  15)   59.78000000  *  26.04300000  *  50.47300000  *
   230       N(ATOM    230  N   ASP A  16)   59.93300000  *  24.24400000  *  51.79800000  *
   231       H(ATOM    231  H   ASP A  16)   59.53900000  *  23.72200000  *  52.56800000  *
   232       C(ATOM    232  CA  ASP A  16)   61.17100000  *  23.74800000  *  51.16800000  *
   233       H(ATOM    233  HA  ASP A  16)   61.82300000  *  24.60300000  *  50.99300000  *
   234       C(ATOM    234  CB  ASP A  16)   61.94100000  *  22.82400000  *  52.12400000  *
   235       H(ATOM    235 HB2  ASP A  16)   61.31200000  *  21.96600000  *  52.36200000  *
   236       H(ATOM    236 HB3  ASP A  16)   62.82800000  *  22.45400000  *  51.60900000  *
   237       C(ATOM    237  CG  ASP A  16)   62.39800000  *  23.48600000  *  53.43400000  *
   238       O(ATOM    238 OD1  ASP A  16)   62.30700000  *  24.72300000  *  53.60100000  *
   239       O(ATOM    239 OD2  ASP A  16)   62.80900000  *  22.73000000  *  54.34700000  *
   240       C(ATOM    240  C   ASP A  16)   60.93000000  *  23.09500000  *  49.78700000  *
   241       O(ATOM    241  O   ASP A  16)   61.86200000  *  22.93400000  *  48.99700000  *
   242       N(ATOM    242  N   ALA A  17)   59.67400000  *  22.77900000  *  49.44500000  *
   243       H(ATOM    243  H   ALA A  17)   58.94700000  *  22.92600000  *  50.13100000  *
   244       C(ATOM    244  CA  ALA A  17)   59.26300000  *  22.46800000  *  48.07400000  *
   245       H(ATOM    245  HA  ALA A  17)   59.90800000  *  21.68000000  *  47.68400000  *
   246       C(ATOM    246  CB  ALA A  17)   57.82500000  *  21.93200000  *  48.09400000  *
   247       H(ATOM    247 HB1  ALA A  17)   57.14200000  *  22.67800000  *  48.50000000  *
   248       H(ATOM    248 HB2  ALA A  17)   57.51500000  *  21.67900000  *  47.08000000  *
   249       H(ATOM    249 HB3  ALA A  17)   57.77500000  *  21.03000000  *  48.70500000  *
   250       C(ATOM    250  C   ALA A  17)   59.42100000  *  23.69300000  *  47.14900000  *
   251       O(ATOM    251  O   ALA A  17)   60.11400000  *  23.62500000  *  46.13200000  *
   252       N(ATOM    252  N   ARG A  18)   58.83500000  *  24.83800000  *  47.53100000  *
   253       H(ATOM    253  H   ARG A  18)   58.28900000  *  24.81900000  *  48.38100000  *
   254       C(ATOM    254  CA  ARG A  18)   58.95500000  *  26.12300000  *  46.81400000  *
   255       H(ATOM    255  HA  ARG A  18)   58.62000000  *  25.98700000  *  45.78600000  *
   256       C(ATOM    256  CB  ARG A  18)   58.05300000  *  27.14400000  *  47.52200000  *
   257       H(ATOM    257 HB2  ARG A  18)   57.06900000  *  26.69800000  *  47.67000000  *
   258       H(ATOM    258 HB3  ARG A  18)   58.49000000  *  27.33700000  *  48.50100000  *
   259       C(ATOM    259  CG  ARG A  18)   57.85100000  *  28.50400000  *  46.83800000  *
   260       H(ATOM    260 HG2  ARG A  18)   57.25900000  *  29.11700000  *  47.51700000  *
   261       H(ATOM    261 HG3  ARG A  18)   58.81000000  *  29.00000000  *  46.68900000  *
   262       C(ATOM    262  CD  ARG A  18)   57.11300000  *  28.40400000  *  45.49700000  *
   263       H(ATOM    263 HD2  ARG A  18)   57.83100000  *  28.14200000  *  44.72000000  *
   264       H(ATOM    264 HD3  ARG A  18)   56.36500000  *  27.61300000  *  45.55900000  *
   265       N(ATOM    265  NE  ARG A  18)   56.42800000  *  29.67100000  *  45.17700000  *
   266       H(ATOM    266  HE  ARG A  18)   56.05000000  *  30.20500000  *  45.94600000  *
   267       C(ATOM    267  CZ  ARG A  18)   56.17700000  *  30.17500000  *  43.98500000  *
   268       N(ATOM    268 NH1  ARG A  18)   56.54300000  *  29.64000000  *  42.85900000  *
   269       H(ATOM    269 HH11 ARG A  18)   57.04200000  *  28.76200000  *  42.82900000  *
   270       H(ATOM    270 HH12 ARG A  18)   56.30700000  *  30.11000000  *  41.99600000  *
   271       N(ATOM    271 NH2  ARG A  18)   55.51400000  *  31.28400000  *  43.90000000  *
   272       H(ATOM    272 HH21 ARG A  18)   55.16600000  *  31.71100000  *  44.74700000  *
   273       H(ATOM    273 HH22 ARG A  18)   55.34200000  *  31.66500000  *  42.98100000  *
   274       C(ATOM    274  C   ARG A  18)   60.40100000  *  26.62700000  *  46.76300000  *
   275       O(ATOM    275  O   ARG A  18)   60.81000000  *  27.22800000  *  45.77500000  *
   276       N(ATOM    276  N   TRP A  19)   61.18400000  *  26.35900000  *  47.81000000  *
   277       H(ATOM    277  H   TRP A  19)   60.74700000  *  25.93200000  *  48.61400000  *
   278       C(ATOM    278  CA  TRP A  19)   62.58800000  *  26.76900000  *  47.92400000  *
   279       H(ATOM    279  HA  TRP A  19)   62.62400000  *  27.85900000  *  47.93300000  *
   280       C(ATOM    280  CB  TRP A  19)   63.14100000  *  26.27000000  *  49.26200000  *
   281       H(ATOM    281 HB2  TRP A  19)   62.40900000  *  26.49000000  *  50.04000000  *
   282       H(ATOM    282 HB3  TRP A  19)   63.27700000  *  25.18900000  *  49.21800000  *
   283       C(ATOM    283  CG  TRP A  19)   64.42000000  *  26.90500000  *  49.69500000  *
   284       C(ATOM    284 CD1  TRP A  19)   65.64200000  *  26.32700000  *  49.71400000  *
   285       H(ATOM    285 HD1  TRP A  19)   65.85500000  *  25.31000000  *  49.41800000  *
   286       N(ATOM    286 NE1  TRP A  19)   66.57900000  *  27.23400000  *  50.17300000  *
   287       H(ATOM    287 HE1  TRP A  19)   67.54800000  *  26.98200000  *  50.30000000  *
   288       C(ATOM    288 CE2  TRP A  19)   66.00000000  *  28.46200000  *  50.44100000  *
   289       C(ATOM    289 CZ2  TRP A  19)   66.49600000  *  29.70200000  *  50.87100000  *
   290       H(ATOM    290 HZ2  TRP A  19)   67.55600000  *  29.83700000  *  51.02800000  *
   291       C(ATOM    291 CH2  TRP A  19)   65.60700000  *  30.76800000  *  51.08700000  *
   292       H(ATOM    292 HH2  TRP A  19)   65.97800000  *  31.72900000  *  51.41300000  *
   293       C(ATOM    293 CZ3  TRP A  19)   64.23100000  *  30.58700000  *  50.88000000  *
   294       H(ATOM    294 HZ3  TRP A  19)   63.55300000  *  31.41200000  *  51.04100000  *
   295       C(ATOM    295 CE3  TRP A  19)   63.73800000  *  29.34800000  *  50.42900000  *
   296       H(ATOM    296 HE3  TRP A  19)   62.68000000  *  29.22000000  *  50.24900000  *
   297       C(ATOM    297 CD2  TRP A  19)   64.61000000  *  28.26300000  *  50.18500000  *
   298       C(ATOM    298  C   TRP A  19)   63.45900000  *  26.30900000  *  46.74400000  *
   299       O(ATOM    299  O   TRP A  19)   64.26000000  *  27.09000000  *  46.23400000  *
   300       N(ATOM    300  N   ALA A  20)   63.25700000  *  25.08400000  *  46.24600000  *
   301       H(ATOM    301  H   ALA A  20)   62.57200000  *  24.48900000  *  46.69100000  *
   302       C(ATOM    302  CA  ALA A  20)   63.96800000  *  24.56100000  *  45.07600000  *
   303       H(ATOM    303  HA  ALA A  20)   65.03900000  *  24.63100000  *  45.26800000  *
   304       C(ATOM    304  CB  ALA A  20)   63.61200000  *  23.07900000  *  44.92100000  *
   305       H(ATOM    305 HB1  ALA A  20)   62.54800000  *  22.97300000  *  44.71200000  *
   306       H(ATOM    306 HB2  ALA A  20)   64.18200000  *  22.64800000  *  44.09800000  *
   307       H(ATOM    307 HB3  ALA A  20)   63.85600000  *  22.53900000  *  45.83600000  *
   308       C(ATOM    308  C   ALA A  20)   63.68800000  *  25.34900000  *  43.77600000  *
   309       O(ATOM    309  O   ALA A  20)   64.58000000  *  25.47900000  *  42.93500000  *
   310       N(ATOM    310  N   GLU A  21)   62.47600000  *  25.89700000  *  43.61900000  *
   311       H(ATOM    311  H   GLU A  21)   61.80100000  *  25.77000000  *  44.36000000  *
   312       C(ATOM    312  CA  GLU A  21)   62.10400000  *  26.81500000  *  42.52600000  *
   313       H(ATOM    313  HA  GLU A  21)   62.41300000  *  26.38100000  *  41.57400000  *
   314       C(ATOM    314  CB  GLU A  21)   60.58000000  *  27.05700000  *  42.48600000  *
   315       H(ATOM    315 HB2  GLU A  21)   60.31500000  *  27.71800000  *  43.31100000  *
   316       H(ATOM    316 HB3  GLU A  21)   60.34800000  *  27.58800000  *  41.56300000  *
   317       C(ATOM    317  CG  GLU A  21)   59.67900000  *  25.81300000  *  42.57100000  *
   318       H(ATOM    318 HG2  GLU A  21)   59.79500000  *  25.22400000  *  41.66100000  *
   319       H(ATOM    319 HG3  GLU A  21)   59.98700000  *  25.19800000  *  43.41700000  *
   320       C(ATOM    320  CD  GLU A  21)   58.20000000  *  26.19200000  *  42.76100000  *
   321       O(ATOM    321 OE1  GLU A  21)   57.75100000  *  27.24900000  *  42.25500000  *
   322       O(ATOM    322 OE2  GLU A  21)   57.46700000  *  25.43000000  *  43.43400000  *
   323       C(ATOM    323  C   GLU A  21)   62.78700000  *  28.18700000  *  42.65900000  *
   324       O(ATOM    324  O   GLU A  21)   63.05600000  *  28.85900000  *  41.66500000  *
   325       N(ATOM    325  N   LEU A  22)   63.03900000  *  28.62200000  *  43.89800000  *
   326       H(ATOM    326  H   LEU A  22)   62.78200000  *  28.01100000  *  44.66000000  *
   327       C(ATOM    327  CA  LEU A  22)   63.56200000  *  29.94500000  *  44.24200000  *
   328       H(ATOM    328  HA  LEU A  22)   62.98700000  *  30.67800000  *  43.67600000  *
   329       C(ATOM    329  CB  LEU A  22)   63.31500000  *  30.15700000  *  45.74900000  *
   330       H(ATOM    330 HB2  LEU A  22)   62.39500000  *  29.65200000  *  46.04100000  *
   331       H(ATOM    331 HB3  LEU A  22)   64.13200000  *  29.69000000  *  46.30000000  *
   332       C(ATOM    332  CG  LEU A  22)   63.19900000  *  31.62300000  *  46.18800000  *
   333       H(ATOM    333  HG  LEU A  22)   64.05700000  *  32.19100000  *  45.83000000  *
   334       C(ATOM    334 CD1  LEU A  22)   61.91200000  *  32.27000000  *  45.67200000  *
   335       H(ATOM    335 HD11 LEU A  22)   61.05200000  *  31.65300000  *  45.93500000  *
   336       H(ATOM    336 HD12 LEU A  22)   61.79200000  *  33.25400000  *  46.12600000  *
   337       H(ATOM    337 HD13 LEU A  22)   61.95500000  *  32.38800000  *  44.59000000  *
   338       C(ATOM    338 CD2  LEU A  22)   63.17300000  *  31.68600000  *  47.71500000  *
   339       H(ATOM    339 HD21 LEU A  22)   64.09700000  *  31.26700000  *  48.11300000  *
   340       H(ATOM    340 HD22 LEU A  22)   63.08300000  *  32.72100000  *  48.04400000  *
   341       H(ATOM    341 HD23 LEU A  22)   62.32800000  *  31.11300000  *  48.09600000  *
   342       C(ATOM    342  C   LEU A  22)   65.04300000  *  30.13900000  *  43.86600000  *
   343       O(ATOM    343  O   LEU A  22)   65.45500000  *  31.24700000  *  43.52000000  *
   344       N(ATOM    344  N   LEU A  23)   65.84300000  *  29.06800000  *  43.92000000  *
   345       H(ATOM    345  H   LEU A  23)   65.42100000  *  28.20400000  *  44.22900000  *
   346       C(ATOM    346  CA  LEU A  23)   67.28800000  *  29.08400000  *  43.64600000  *
   347       H(ATOM    347  HA  LEU A  23)   67.74900000  *  29.71200000  *  44.40800000  *
   348       C(ATOM    348  CB  LEU A  23)   67.88800000  *  27.66800000  *  43.78700000  *
   349       H(ATOM    349 HB2  LEU A  23)   67.46500000  *  27.02400000  *  43.01600000  *
   350       H(ATOM    350 HB3  LEU A  23)   68.96100000  *  27.74000000  *  43.60800000  *
   351       C(ATOM    351  CG  LEU A  23)   67.66200000  *  26.97700000  *  45.14600000  *
   352       H(ATOM    352  HG  LEU A  23)   66.59700000  *  26.79100000  *  45.28700000  *
   353       C(ATOM    353 CD1  LEU A  23)   68.38700000  *  25.63200000  *  45.14900000  *
   354       H(ATOM    354 HD11 LEU A  23)   69.45200000  *  25.77500000  *  44.96600000  *
   355       H(ATOM    355 HD12 LEU A  23)   68.23500000  *  25.12700000  *  46.10300000  *
   356       H(ATOM    356 HD13 LEU A  23)   67.97700000  *  25.00400000  *  44.35900000  *
   357       C(ATOM    357 CD2  LEU A  23)   68.18700000  *  27.79500000  *  46.32800000  *
   358       H(ATOM    358 HD21 LEU A  23)   67.60500000  *  28.71000000  *  46.43600000  *
   359       H(ATOM    359 HD22 LEU A  23)   68.06800000  *  27.22400000  *  47.24900000  *
   360       H(ATOM    360 HD23 LEU A  23)   69.23900000  *  28.04300000  *  46.18800000  *
   361       C(ATOM    361  C   LEU A  23)   67.68500000  *  29.73000000  *  42.29800000  *
   362       O(ATOM    362  O   LEU A  23)   68.57800000  *  30.58300000  *  42.30700000  *
   363       N(ATOM    363  N   PRO A  24)   67.08300000  *  29.39800000  *  41.13400000  *
   364       C(ATOM    364  CD  PRO A  24)   66.18300000  *  28.28100000  *  40.87500000  *
   365       H(ATOM    365 HD2  PRO A  24)   65.41300000  *  28.17100000  *  41.63800000  *
   366       H(ATOM    366 HD3  PRO A  24)   66.76200000  *  27.36000000  *  40.80900000  *
   367       C(ATOM    367  CG  PRO A  24)   65.54700000  *  28.57600000  *  39.51900000  *
   368       H(ATOM    368 HG2  PRO A  24)   64.71200000  *  29.26600000  *  39.64300000  *
   369       H(ATOM    369 HG3  PRO A  24)   65.22500000  *  27.66400000  *  39.01700000  *
   370       C(ATOM    370  CB  PRO A  24)   66.68300000  *  29.27300000  *  38.77200000  *
   371       H(ATOM    371 HB2  PRO A  24)   66.30600000  *  29.91400000  *  37.97600000  *
   372       H(ATOM    372 HB3  PRO A  24)   67.35900000  *  28.52200000  *  38.36300000  *
   373       C(ATOM    373  CA  PRO A  24)   67.40700000  *  30.06500000  *  39.86900000  *
   374       H(ATOM    374  HA  PRO A  24)   68.47900000  *  29.99400000  *  39.68600000  *
   375       C(ATOM    375  C   PRO A  24)   67.03600000  *  31.55700000  *  39.84300000  *
   376       O(ATOM    376  O   PRO A  24)   67.75200000  *  32.33300000  *  39.21400000  *
   377       N(ATOM    377  N   LEU A  25)   65.95900000  *  31.98500000  *  40.51500000  *
   378       H(ATOM    378  H   LEU A  25)   65.41500000  *  31.31600000  *  41.04000000  *
   379       C(ATOM    379  CA  LEU A  25)   65.61100000  *  33.41200000  *  40.63600000  *
   380       H(ATOM    380  HA  LEU A  25)   65.62600000  *  33.86700000  *  39.64600000  *
   381       C(ATOM    381  CB  LEU A  25)   64.19400000  *  33.58600000  *  41.22100000  *
   382       H(ATOM    382 HB2  LEU A  25)   64.05000000  *  32.90700000  *  42.06100000  *
   383       H(ATOM    383 HB3  LEU A  25)   64.12600000  *  34.60200000  *  41.61100000  *
   384       C(ATOM    384  CG  LEU A  25)   63.04200000  *  33.41400000  *  40.21200000  *
   385       H(ATOM    385  HG  LEU A  25)   63.20400000  *  34.08600000  *  39.37000000  *
   386       C(ATOM    386 CD1  LEU A  25)   62.89900000  *  31.98600000  *  39.68200000  *
   387       H(ATOM    387 HD11 LEU A  25)   62.81900000  *  31.28200000  *  40.51100000  *
   388       H(ATOM    388 HD12 LEU A  25)   62.00300000  *  31.91100000  *  39.06500000  *
   389       H(ATOM    389 HD13 LEU A  25)   63.75700000  *  31.73100000  *  39.06000000  *
   390       C(ATOM    390 CD2  LEU A  25)   61.72600000  *  33.80200000  *  40.88800000  *
   391       H(ATOM    391 HD21 LEU A  25)   61.77300000  *  34.83900000  *  41.22200000  *
   392       H(ATOM    392 HD22 LEU A  25)   60.90500000  *  33.71100000  *  40.17700000  *
   393       H(ATOM    393 HD23 LEU A  25)   61.53400000  *  33.15100000  *  41.74100000  *
   394       C(ATOM    394  C   LEU A  25)   66.64800000  *  34.17000000  *  41.47900000  *
   395       O(ATOM    395  O   LEU A  25)   67.16100000  *  35.20600000  *  41.05400000  *
   396       N(ATOM    396  N   LEU A  26)   67.02600000  *  33.62400000  *  42.64100000  *
   397       H(ATOM    397  H   LEU A  26)   66.57700000  *  32.76600000  *  42.92700000  *
   398       C(ATOM    398  CA  LEU A  26)   68.02100000  *  34.22900000  *  43.53800000  *
   399       H(ATOM    399  HA  LEU A  26)   67.66100000  *  35.21300000  *  43.83800000  *
   400       C(ATOM    400  CB  LEU A  26)   68.19100000  *  33.35000000  *  44.79200000  *
   401       H(ATOM    401 HB2  LEU A  26)   68.37100000  *  32.32500000  *  44.46800000  *
   402       H(ATOM    402 HB3  LEU A  26)   69.07000000  *  33.69100000  *  45.33800000  *
   403       C(ATOM    403  CG  LEU A  26)   66.99600000  *  33.36800000  *  45.76100000  *
   404       H(ATOM    404  HG  LEU A  26)   66.06500000  *  33.24500000  *  45.20700000  *
   405       C(ATOM    405 CD1  LEU A  26)   67.12400000  *  32.22600000  *  46.77000000  *
   406       H(ATOM    406 HD11 LEU A  26)   68.06800000  *  32.30200000  *  47.31000000  *
   407       H(ATOM    407 HD12 LEU A  26)   66.29800000  *  32.26200000  *  47.48000000  *
   408       H(ATOM    408 HD13 LEU A  26)   67.08700000  *  31.27100000  *  46.24500000  *
   409       C(ATOM    409 CD2  LEU A  26)   66.93800000  *  34.68400000  *  46.53700000  *
   410       H(ATOM    410 HD21 LEU A  26)   66.80000000  *  35.51500000  *  45.84600000  *
   411       H(ATOM    411 HD22 LEU A  26)   66.09400000  *  34.66300000  *  47.22700000  *
   412       H(ATOM    412 HD23 LEU A  26)   67.85900000  *  34.83000000  *  47.10100000  *
   413       C(ATOM    413  C   LEU A  26)   69.37800000  *  34.46500000  *  42.85200000  *
   414       O(ATOM    414  O   LEU A  26)   70.05400000  *  35.44500000  *  43.15400000  *
   415       N(ATOM    415  N   GLN A  27)   69.75600000  *  33.60900000  *  41.90100000  *
   416       H(ATOM    416  H   GLN A  27)   69.15500000  *  32.81800000  *  41.71400000  *
   417       C(ATOM    417  CA  GLN A  27)   71.00800000  *  33.72200000  *  41.14500000  *
   418       H(ATOM    418  HA  GLN A  27)   71.79500000  *  34.04700000  *  41.82600000  *
   419       C(ATOM    419  CB  GLN A  27)   71.40300000  *  32.33300000  *  40.61600000  *
   420       H(ATOM    420 HB2  GLN A  27)   70.56000000  *  31.90900000  *  40.07100000  *
   421       H(ATOM    421 HB3  GLN A  27)   72.24100000  *  32.42500000  *  39.92400000  *
   422       C(ATOM    422  CG  GLN A  27)   71.83100000  *  31.37400000  *  41.73800000  *
   423       H(ATOM    423 HG2  GLN A  27)   72.77800000  *  31.70600000  *  42.16500000  *
   424       H(ATOM    424 HG3  GLN A  27)   71.08300000  *  31.37400000  *  42.53100000  *
   425       C(ATOM    425  CD  GLN A  27)   71.97600000  *  29.95400000  *  41.22400000  *
   426       O(ATOM    426 OE1  GLN A  27)   73.04600000  *  29.48500000  *  40.85600000  *
   427       N(ATOM    427 NE2  GLN A  27)   70.88400000  *  29.22700000  *  41.13900000  *
   428       H(ATOM    428 HE21 GLN A  27)   70.95700000  *  28.28900000  *  40.76900000  *
   429       H(ATOM    429 HE22 GLN A  27)   70.01600000  *  29.61500000  *  41.47800000  *
   430       C(ATOM    430  C   GLN A  27)   70.98200000  *  34.75600000  *  39.99900000  *
   431       O(ATOM    431  O   GLN A  27)   72.02300000  *  34.94300000  *  39.36600000  *
   432       N(ATOM    432  N   GLN A  28)   69.86400000  *  35.43900000  *  39.70200000  *
   433       H(ATOM    433  H   GLN A  28)   69.02200000  *  35.24600000  *  40.22600000  *
   434       C(ATOM    434  CA  GLN A  28)   69.81600000  *  36.41100000  *  38.58900000  *
   435       H(ATOM    435  HA  GLN A  28)   70.80600000  *  36.85500000  *  38.48700000  *
   436       C(ATOM    436  CB  GLN A  28)   69.52400000  *  35.66600000  *  37.26800000  *
   437       H(ATOM    437 HB2  GLN A  28)   69.75000000  *  36.32300000  *  36.42900000  *
   438       H(ATOM    438 HB3  GLN A  28)   70.18500000  *  34.80200000  *  37.19800000  *
   439       C(ATOM    439  CG  GLN A  28)   68.06700000  *  35.19700000  *  37.14400000  *
   440       H(ATOM    440 HG2  GLN A  28)   67.73600000  *  34.77500000  *  38.09300000  *
   441       H(ATOM    441 HG3  GLN A  28)   67.42600000  *  36.04800000  *  36.91800000  *
   442       C(ATOM    442  CD  GLN A  28)   67.89200000  *  34.14600000  *  36.04900000  *
   443       O(ATOM    443 OE1  GLN A  28)   68.07200000  *  34.39900000  *  34.86300000  *
   444       N(ATOM    444 NE2  GLN A  28)   67.55100000  *  32.93400000  *  36.41400000  *
   445       H(ATOM    445 HE21 GLN A  28)   67.28700000  *  32.27300000  *  35.69700000  *
   446       H(ATOM    446 HE22 GLN A  28)   67.48400000  *  32.71500000  *  37.39700000  *
   447       C(ATOM    447  C   GLN A  28)   68.86600000  *  37.61500000  *  38.74900000  *
   448       O(ATOM    448  O   GLN A  28)   68.98000000  *  38.56100000  *  37.97200000  *
   449       N(ATOM    449  N   CYS A  29)   67.95100000  *  37.63900000  *  39.72200000  *
   450       H(ATOM    450  H   CYS A  29)   67.80700000  *  36.82500000  *  40.30300000  *
   451       C(ATOM    451  CA  CYS A  29)   67.10900000  *  38.81900000  *  39.95100000  *
   452       H(ATOM    452  HA  CYS A  29)   66.63700000  *  39.08000000  *  39.00500000  *
   453       C(ATOM    453  CB  CYS A  29)   65.99500000  *  38.48700000  *  40.95300000  *
   454       H(ATOM    454 HB2  CYS A  29)   66.42000000  *  38.02700000  *  41.84600000  *
   455       H(ATOM    455 HB3  CYS A  29)   65.48600000  *  39.40700000  *  41.24000000  *
   456       S(ATOM    456  SG  CYS A  29)   64.79000000  *  37.37000000  *  40.17800000  *
   457       H(ATOM    457  HG  CYS A  29)   63.84000000  *  37.46700000  *  41.11300000  *
   458       C(ATOM    458  C   CYS A  29)   67.93100000  *  40.04400000  *  40.39500000  *
   459       O(ATOM    459  O   CYS A  29)   68.79700000  *  39.94600000  *  41.26700000  *
   460       N(ATOM    460  N   GLN A  30)   67.58700000  *  41.21400000  *  39.84800000  *
   461       H(ATOM    461  H   GLN A  30)   66.84800000  *  41.20700000  *  39.15900000  *
   462       C(ATOM    462  CA  GLN A  30)   68.10800000  *  42.52800000  *  40.25000000  *
   463       H(ATOM    463  HA  GLN A  30)   69.19400000  *  42.46500000  *  40.31700000  *
   464       C(ATOM    464  CB  GLN A  30)   67.73400000  *  43.54200000  *  39.14800000  *
   465       H(ATOM    465 HB2  GLN A  30)   68.17100000  *  43.21100000  *  38.20600000  *
   466       H(ATOM    466 HB3  GLN A  30)   66.64900000  *  43.54400000  *  39.03600000  *
   467       C(ATOM    467  CG  GLN A  30)   68.19800000  *  44.98400000  *  39.42300000  *
   468       H(ATOM    468 HG2  GLN A  30)   67.77400000  *  45.33600000  *  40.36300000  *
   469       H(ATOM    469 HG3  GLN A  30)   69.28400000  *  44.99800000  *  39.50900000  *
   470       C(ATOM    470  CD  GLN A  30)   67.77700000  *  45.98200000  *  38.34500000  *
   471       O(ATOM    471 OE1  GLN A  30)   66.86200000  *  45.77600000  *  37.56100000  *
   472       N(ATOM    472 NE2  GLN A  30)   68.39800000  *  47.14000000  *  38.28600000  *
   473       H(ATOM    473 HE21 GLN A  30)   68.04500000  *  47.81100000  *  37.61800000  *
   474       H(ATOM    474 HE22 GLN A  30)   69.14500000  *  47.36000000  *  38.92900000  *
   475       C(ATOM    475  C   GLN A  30)   67.57900000  *  42.96600000  *  41.62900000  *
   476       O(ATOM    476  O   GLN A  30)   68.23700000  *  43.71200000  *  42.35500000  *
   477       N(ATOM    477  N   VAL A  31)   66.39000000  *  42.48000000  *  41.98700000  *
   478       H(ATOM    478  H   VAL A  31)   65.93700000  *  41.85800000  *  41.33200000  *
   479       C(ATOM    479  CA  VAL A  31)   65.62800000  *  42.83100000  *  43.19100000  *
   480       H(ATOM    480  HA  VAL A  31)   66.25600000  *  43.40500000  *  43.87200000  *
   481       C(ATOM    481  CB  VAL A  31)   64.38700000  *  43.67400000  *  42.82900000  *
   482       H(ATOM    482  HB  VAL A  31)   63.75300000  *  43.08500000  *  42.16600000  *
   483       C(ATOM    483 CG1  VAL A  31)   63.56600000  *  44.04000000  *  44.07400000  *
   484       H(ATOM    484 HG11 VAL A  31)   64.18300000  *  44.58400000  *  44.78900000  *
   485       H(ATOM    485 HG12 VAL A  31)   62.72100000  *  44.66600000  *  43.78500000  *
   486       H(ATOM    486 HG13 VAL A  31)   63.16900000  *  43.14100000  *  44.54500000  *
   487       C(ATOM    487 CG2  VAL A  31)   64.75300000  *  44.96600000  *  42.08400000  *
   488       H(ATOM    488 HG21 VAL A  31)   65.21500000  *  44.73000000  *  41.12500000  *
   489       H(ATOM    489 HG22 VAL A  31)   63.85100000  *  45.54600000  *  41.88900000  *
   490       H(ATOM    490 HG23 VAL A  31)   65.44100000  *  45.56900000  *  42.67500000  *
   491       C(ATOM    491  C   VAL A  31)   65.20300000  *  41.53800000  *  43.88100000  *
   492       O(ATOM    492  O   VAL A  31)   64.56900000  *  40.69200000  *  43.24900000  *
   493       N(ATOM    493  N   VAL A  32)   65.58100000  *  41.36400000  *  45.14900000  *
   494       H(ATOM    494  H   VAL A  32)   66.16900000  *  42.07200000  *  45.56700000  *
   495       C(ATOM    495  CA  VAL A  32)   65.27400000  *  40.17200000  *  45.95500000  *
   496       H(ATOM    496  HA  VAL A  32)   64.54600000  *  39.55700000  *  45.42700000  *
   497       C(ATOM    497  CB  VAL A  32)   66.54200000  *  39.31500000  *  46.16500000  *
   498       H(ATOM    498  HB  VAL A  32)   67.33500000  *  39.94300000  *  46.57100000  *
   499       C(ATOM    499 CG1  VAL A  32)   66.30700000  *  38.15000000  *  47.13900000  *
   500       H(ATOM    500 HG11 VAL A  32)   65.48900000  *  37.52200000  *  46.78500000  *
   501       H(ATOM    501 HG12 VAL A  32)   67.21600000  *  37.55400000  *  47.22100000  *
   502       H(ATOM    502 HG13 VAL A  32)   66.06600000  *  38.52400000  *  48.13400000  *
   503       C(ATOM    503 CG2  VAL A  32)   67.02700000  *  38.71900000  *  44.83500000  *
   504       H(ATOM    504 HG21 VAL A  32)   67.30400000  *  39.51700000  *  44.14600000  *
   505       H(ATOM    505 HG22 VAL A  32)   67.90800000  *  38.09900000  *  45.00000000  *
   506       H(ATOM    506 HG23 VAL A  32)   66.24000000  *  38.11500000  *  44.38400000  *
   507       C(ATOM    507  C   VAL A  32)   64.64500000  *  40.58300000  *  47.28700000  *
   508       O(ATOM    508  O   VAL A  32)   65.30300000  *  41.17000000  *  48.14900000  *
   509       N(ATOM    509  N   ARG A  33)   63.36300000  *  40.25000000  *  47.46600000  *
   510       H(ATOM    510  H   ARG A  33)   62.86900000  *  39.86100000  *  46.67600000  *
   511       C(ATOM    511  CA  ARG A  33)   62.56200000  *  40.55800000  *  48.65500000  *
   512       H(ATOM    512  HA  ARG A  33)   63.23600000  *  40.88700000  *  49.44600000  *
   513       C(ATOM    513  CB  ARG A  33)   61.62900000  *  41.73100000  *  48.32900000  *
   514       H(ATOM    514 HB2  ARG A  33)   62.24700000  *  42.57600000  *  48.02600000  *
   515       H(ATOM    515 HB3  ARG A  33)   60.97500000  *  41.47600000  *  47.49500000  *
   516       C(ATOM    516  CG  ARG A  33)   60.77600000  *  42.13700000  *  49.53600000  *
   517       H(ATOM    517 HG2  ARG A  33)   59.97900000  *  41.41100000  *  49.69300000  *
   518       H(ATOM    518 HG3  ARG A  33)   61.39800000  *  42.17100000  *  50.43100000  *
   519       C(ATOM    519  CD  ARG A  33)   60.17400000  *  43.52000000  *  49.29600000  *
   520       H(ATOM    520 HD2  ARG A  33)   60.96900000  *  44.20300000  *  48.99800000  *
   521       H(ATOM    521 HD3  ARG A  33)   59.44000000  *  43.45700000  *  48.49200000  *
   522       N(ATOM    522  NE  ARG A  33)   59.53300000  *  44.02200000  *  50.51400000  *
   523       H(ATOM    523  HE  ARG A  33)   59.22600000  *  43.35100000  *  51.20400000  *
   524       C(ATOM    524  CZ  ARG A  33)   59.23400000  *  45.26600000  *  50.80300000  *
   525       N(ATOM    525 NH1  ARG A  33)   59.53600000  *  46.28200000  *  50.04700000  *
   526       H(ATOM    526 HH11 ARG A  33)   60.01800000  *  46.14900000  *  49.16900000  *
   527       H(ATOM    527 HH12 ARG A  33)   59.23200000  *  47.20000000  *  50.33700000  *
   528       N(ATOM    528 NH2  ARG A  33)   58.61000000  *  45.50100000  *  51.91200000  *
   529       H(ATOM    529 HH21 ARG A  33)   58.41700000  *  44.70000000  *  52.49500000  *
   530       H(ATOM    530 HH22 ARG A  33)   58.32100000  *  46.44200000  *  52.14200000  *
   531       C(ATOM    531  C   ARG A  33)   61.82000000  *  39.32300000  *  49.16600000  *
   532       O(ATOM    532  O   ARG A  33)   61.04200000  *  38.70800000  *  48.43800000  *
   533       N(ATOM    533  N   LEU A  34)   62.09900000  *  38.95600000  *  50.41600000  *
   534       H(ATOM    534  H   LEU A  34)   62.75400000  *  39.52700000  *  50.93100000  *
   535       C(ATOM    535  CA  LEU A  34)   61.56700000  *  37.77300000  *  51.10000000  *
   536       H(ATOM    536  HA  LEU A  34)   60.62700000  *  37.46700000  *  50.64000000  *
   537       C(ATOM    537  CB  LEU A  34)   62.58000000  *  36.61700000  *  50.98400000  *
   538       H(ATOM    538 HB2  LEU A  34)   63.53100000  *  36.97900000  *  51.37500000  *
   539       H(ATOM    539 HB3  LEU A  34)   62.23900000  *  35.79500000  *  51.61400000  *
   540       C(ATOM    540  CG  LEU A  34)   62.83300000  *  36.07800000  *  49.56300000  *
   541       H(ATOM    541  HG  LEU A  34)   63.13200000  *  36.89400000  *  48.90500000  *
   542       C(ATOM    542 CD1  LEU A  34)   63.98100000  *  35.06800000  *  49.59000000  *
   543       H(ATOM    543 HD11 LEU A  34)   63.70700000  *  34.19800000  *  50.18600000  *
   544       H(ATOM    544 HD12 LEU A  34)   64.20200000  *  34.74900000  *  48.57100000  *
   545       H(ATOM    545 HD13 LEU A  34)   64.87300000  *  35.53300000  *  50.01000000  *
   546       C(ATOM    546 CD2  LEU A  34)   61.60500000  *  35.38400000  *  48.97200000  *
   547       H(ATOM    547 HD21 LEU A  34)   60.79300000  *  36.10500000  *  48.87200000  *
   548       H(ATOM    548 HD22 LEU A  34)   61.84000000  *  34.99900000  *  47.98000000  *
   549       H(ATOM    549 HD23 LEU A  34)   61.28300000  *  34.56500000  *  49.61500000  *
   550       C(ATOM    550  C   LEU A  34)   61.28200000  *  38.15100000  *  52.56400000  *
   551       O(ATOM    551  O   LEU A  34)   62.19800000  *  38.24500000  *  53.37700000  *
   552       N(ATOM    552  N   ASP A  35)   60.02500000  *  38.45200000  *  52.88300000  *
   553       H(ATOM    553  H   ASP A  35)   59.31600000  *  38.26400000  *  52.18900000  *
   554       C(ATOM    554  CA  ASP A  35)   59.68900000  *  39.50100000  *  53.86100000  *
   555       H(ATOM    555  HA  ASP A  35)   60.49500000  *  39.62500000  *  54.58400000  *
   556       C(ATOM    556  CB  ASP A  35)   59.58500000  *  40.79500000  *  53.03400000  *
   557       H(ATOM    557 HB2  ASP A  35)   60.58400000  *  41.06500000  *  52.69100000  *
   558       H(ATOM    558 HB3  ASP A  35)   58.98100000  *  40.59700000  *  52.14800000  *
   559       C(ATOM    559  CG  ASP A  35)   58.98000000  *  42.00600000  *  53.73400000  *
   560       O(ATOM    560 OD1  ASP A  35)   58.73500000  *  42.00600000  *  54.95600000  *
   561       O(ATOM    561 OD2  ASP A  35)   58.72000000  *  43.00900000  *  53.03200000  *
   562       C(ATOM    562  C   ASP A  35)   58.39700000  *  39.16900000  *  54.63900000  *
   563       O(ATOM    563  O   ASP A  35)   57.32700000  *  39.09500000  *  54.04400000  *
   564       N(ATOM    564  N   ASP A  36)   58.49500000  *  38.93400000  *  55.95700000  *
   565       H(ATOM    565  H   ASP A  36)   59.37300000  *  39.16900000  *  56.39700000  *
   566       C(ATOM    566  CA  ASP A  36)   57.41500000  *  38.34100000  *  56.78400000  *
   567       H(ATOM    567  HA  ASP A  36)   57.82000000  *  38.17100000  *  57.78100000  *
   568       C(ATOM    568  CB  ASP A  36)   56.22800000  *  39.34300000  *  56.94600000  *
   569       H(ATOM    569 HB2  ASP A  36)   56.32600000  *  40.16100000  *  56.23200000  *
   570       H(ATOM    570 HB3  ASP A  36)   55.27900000  *  38.85700000  *  56.72200000  *
   571       C(ATOM    571  CG  ASP A  36)   56.10300000  *  39.94000000  *  58.35700000  *
   572       O(ATOM    572 OD1  ASP A  36)   55.88600000  *  39.16100000  *  59.31500000  *
   573       O(ATOM    573 OD2  ASP A  36)   56.22500000  *  41.18400000  *  58.50600000  *
   574       C(ATOM    574  C   ASP A  36)   57.02700000  *  36.92500000  *  56.25500000  *
   575       O(ATOM    575  O   ASP A  36)   55.85300000  *  36.56100000  *  56.17600000  *
   576       N(ATOM    576  N   CYS A  37)   58.03200000  *  36.10000000  *  55.90500000  *
   577       H(ATOM    577  H   CYS A  37)   58.97300000  *  36.45300000  *  56.00400000  *
   578       C(ATOM    578  CA  CYS A  37)   57.86400000  *  34.85100000  *  55.12400000  *
   579       H(ATOM    579  HA  CYS A  37)   56.80100000  *  34.62400000  *  55.03600000  *
   580       C(ATOM    580  CB  CYS A  37)   58.40900000  *  35.08900000  *  53.70800000  *
   581       H(ATOM    581 HB2  CYS A  37)   59.40800000  *  35.52300000  *  53.75300000  *
   582       H(ATOM    582 HB3  CYS A  37)   58.44800000  *  34.14400000  *  53.16700000  *
   583       S(ATOM    583  SG  CYS A  37)   57.27800000  *  36.18700000  *  52.82600000  *
   584       H(ATOM    584  HG  CYS A  37)   57.99800000  *  36.35000000  *  51.71200000  *
   585       C(ATOM    585  C   CYS A  37)   58.50400000  *  33.57900000  *  55.72400000  *
   586       O(ATOM    586  O   CYS A  37)   58.56700000  *  32.53700000  *  55.06800000  *
   587       N(ATOM    587  N   GLY A  38)   58.97900000  *  33.62300000  *  56.97000000  *
   588       H(ATOM    588  H   GLY A  38)   58.93400000  *  34.50500000  *  57.46200000  *
   589       C(ATOM    589  CA  GLY A  38)   59.61000000  *  32.46900000  *  57.62500000  *
   590       H(ATOM    590 HA2  GLY A  38)   59.83400000  *  32.72300000  *  58.66100000  *
   591       H(ATOM    591 HA3  GLY A  38)   58.90700000  *  31.63600000  *  57.62500000  *
   592       C(ATOM    592  C   GLY A  38)   60.91200000  *  31.98900000  *  56.96600000  *
   593       O(ATOM    593  O   GLY A  38)   61.16700000  *  30.78300000  *  56.87600000  *
   594       N(ATOM    594  N   LEU A  39)   61.77500000  *  32.92100000  *  56.54400000  *
   595       H(ATOM    595  H   LEU A  39)   61.49300000  *  33.88700000  *  56.62800000  *
   596       C(ATOM    596  CA  LEU A  39)   63.20600000  *  32.62300000  *  56.41900000  *
   597       H(ATOM    597  HA  LEU A  39)   63.32700000  *  31.78300000  *  55.73500000  *
   598       C(ATOM    598  CB  LEU A  39)   63.99500000  *  33.82300000  *  55.87400000  *
   599       H(ATOM    599 HB2  LEU A  39)   63.95900000  *  34.62700000  *  56.61000000  *
   600       H(ATOM    600 HB3  LEU A  39)   65.03800000  *  33.51900000  *  55.78000000  *
   601       C(ATOM    601  CG  LEU A  39)   63.53300000  *  34.38200000  *  54.52200000  *
   602       H(ATOM    602  HG  LEU A  39)   62.52300000  *  34.78400000  *  54.60500000  *
   603       C(ATOM    603 CD1  LEU A  39)   64.48700000  *  35.51300000  *  54.14500000  *
   604       H(ATOM    604 HD11 LEU A  39)   65.51400000  *  35.14900000  *  54.09800000  *
   605       H(ATOM    605 HD12 LEU A  39)   64.20500000  *  35.92400000  *  53.17600000  *
   606       H(ATOM    606 HD13 LEU A  39)   64.42300000  *  36.31100000  *  54.88400000  *
   607       C(ATOM    607 CD2  LEU A  39)   63.55600000  *  33.31700000  *  53.42400000  *
   608       H(ATOM    608 HD21 LEU A  39)   62.79700000  *  32.56200000  *  53.62900000  *
   609       H(ATOM    609 HD22 LEU A  39)   63.32300000  *  33.77800000  *  52.46400000  *
   610       H(ATOM    610 HD23 LEU A  39)   64.53700000  *  32.84500000  *  53.37200000  *
   611       C(ATOM    611  C   LEU A  39)   63.77700000  *  32.20900000  *  57.78200000  *
   612       O(ATOM    612  O   LEU A  39)   63.36000000  *  32.73400000  *  58.81500000  *
   613       N(ATOM    613  N   THR A  40)   64.74400000  *  31.29100000  *  57.77800000  *
   614       H(ATOM    614  H   THR A  40)   65.08500000  *  30.93700000  *  56.89600000  *
   615       C(ATOM    615  CA  THR A  40)   65.34000000  *  30.72700000  *  58.99700000  *
   616       H(ATOM    616  HA  THR A  40)   65.12100000  *  31.39400000  *  59.83200000  *
   617       C(ATOM    617  CB  THR A  40)   64.74100000  *  29.34700000  *  59.34100000  *
   618       H(ATOM    618  HB  THR A  40)   65.18100000  *  29.00000000  *  60.27600000  *
   619       C(ATOM    619 CG2  THR A  40)   63.22800000  *  29.39600000  *  59.54100000  *
   620       H(ATOM    620 HG21 THR A  40)   62.72300000  *  29.55700000  *  58.58900000  *
   621       H(ATOM    621 HG22 THR A  40)   62.88400000  *  28.45900000  *  59.97900000  *
   622       H(ATOM    622 HG23 THR A  40)   62.97600000  *  30.20700000  *  60.22500000  *
   623       O(ATOM    623 OG1  THR A  40)   65.02100000  *  28.39100000  *  58.33500000  *
   624       H(ATOM    624 HG1  THR A  40)   64.45300000  *  27.63900000  *  58.51600000  *
   625       C(ATOM    625  C   THR A  40)   66.86200000  *  30.61800000  *  58.90700000  *
   626       O(ATOM    626  O   THR A  40)   67.46000000  *  30.67400000  *  57.83000000  *
   627       N(ATOM    627  N   GLU A  41)   67.48800000  *  30.39200000  *  60.06000000  *
   628       H(ATOM    628  H   GLU A  41)   66.92300000  *  30.45500000  *  60.89500000  *
   629       C(ATOM    629  CA  GLU A  41)   68.92900000  *  30.18800000  *  60.26000000  *
   630       H(ATOM    630  HA  GLU A  41)   69.45600000  *  31.08500000  *  59.93400000  *
   631       C(ATOM    631  CB  GLU A  41)   69.12100000  *  30.02500000  *  61.78000000  *
   632       H(ATOM    632 HB2  GLU A  41)   68.63100000  *  30.87000000  *  62.26100000  *
   633       H(ATOM    633 HB3  GLU A  41)   68.60600000  *  29.11700000  *  62.09400000  *
   634       C(ATOM    634  CG  GLU A  41)   70.56500000  *  29.96300000  *  62.29400000  *
   635       H(ATOM    635 HG2  GLU A  41)   71.07100000  *  29.10500000  *  61.85300000  *
   636       H(ATOM    636 HG3  GLU A  41)   71.09200000  *  30.86700000  *  61.98800000  *
   637       C(ATOM    637  CD  GLU A  41)   70.59200000  *  29.85300000  *  63.83000000  *
   638       O(ATOM    638 OE1  GLU A  41)   69.81600000  *  30.56000000  *  64.51600000  *
   639       O(ATOM    639 OE2  GLU A  41)   71.37200000  *  29.03700000  *  64.37100000  *
   640       C(ATOM    640  C   GLU A  41)   69.49300000  *  28.99700000  *  59.45100000  *
   641       O(ATOM    641  O   GLU A  41)   70.68600000  *  28.95800000  *  59.13700000  *
   642       N(ATOM    642  N   ALA A  42)   68.63300000  *  28.04600000  *  59.06400000  *
   643       H(ATOM    643  H   ALA A  42)   67.67700000  *  28.14100000  *  59.37600000  *
   644       C(ATOM    644  CA  ALA A  42)   68.89200000  *  27.07100000  *  58.00300000  *
   645       H(ATOM    645  HA  ALA A  42)   69.89600000  *  26.66800000  *  58.13200000  *
   646       C(ATOM    646  CB  ALA A  42)   67.90500000  *  25.90800000  *  58.15400000  *
   647       H(ATOM    647 HB1  ALA A  42)   66.87800000  *  26.25800000  *  58.05700000  *
   648       H(ATOM    648 HB2  ALA A  42)   68.09800000  *  25.16100000  *  57.38400000  *
   649       H(ATOM    649 HB3  ALA A  42)   68.02900000  *  25.44100000  *  59.13200000  *
   650       C(ATOM    650  C   ALA A  42)   68.83600000  *  27.71200000  *  56.59700000  *
   651       O(ATOM    651  O   ALA A  42)   69.85500000  *  27.77800000  *  55.90800000  *
   652       N(ATOM    652  N   ARG A  43)   67.66700000  *  28.21900000  *  56.17300000  *
   653       H(ATOM    653  H   ARG A  43)   66.89600000  *  28.20800000  *  56.82400000  *
   654       C(ATOM    654  CA  ARG A  43)   67.40700000  *  28.71200000  *  54.80000000  *
   655       H(ATOM    655  HA  ARG A  43)   67.54000000  *  27.88300000  *  54.10600000  *
   656       C(ATOM    656  CB  ARG A  43)   65.94900000  *  29.19800000  *  54.68300000  *
   657       H(ATOM    657 HB2  ARG A  43)   65.74400000  *  29.92100000  *  55.47200000  *
   658       H(ATOM    658 HB3  ARG A  43)   65.81400000  *  29.69400000  *  53.72100000  *
   659       C(ATOM    659  CG  ARG A  43)   64.94700000  *  28.03300000  *  54.76900000  *
   660       H(ATOM    660 HG2  ARG A  43)   65.12700000  *  27.35300000  *  53.93700000  *
   661       H(ATOM    661 HG3  ARG A  43)   65.10200000  *  27.48500000  *  55.69900000  *
   662       C(ATOM    662  CD  ARG A  43)   63.48300000  *  28.49800000  *  54.72000000  *
   663       H(ATOM    663 HD2  ARG A  43)   63.30400000  *  29.19100000  *  55.54300000  *
   664       H(ATOM    664 HD3  ARG A  43)   63.30600000  *  29.01700000  *  53.77800000  *
   665       N(ATOM    665  NE  ARG A  43)   62.57700000  *  27.33800000  *  54.81400000  *
   666       H(ATOM    666  HE  ARG A  43)   62.74700000  *  26.56300000  *  54.18800000  *
   667       C(ATOM    667  CZ  ARG A  43)   61.64000000  *  27.09400000  *  55.71000000  *
   668       N(ATOM    668 NH1  ARG A  43)   61.19100000  *  27.95300000  *  56.58200000  *
   669       H(ATOM    669 HH11 ARG A  43)   61.45800000  *  28.92600000  *  56.54600000  *
   670       H(ATOM    670 HH12 ARG A  43)   60.47700000  *  27.66800000  *  57.23700000  *
   671       N(ATOM    671 NH2  ARG A  43)   61.13200000  *  25.90400000  *  55.73600000  *
   672       H(ATOM    672 HH21 ARG A  43)   61.46800000  *  25.25900000  *  55.03600000  *
   673       H(ATOM    673 HH22 ARG A  43)   60.43300000  *  25.62800000  *  56.41000000  *
   674       C(ATOM    674  C   ARG A  43)   68.40200000  *  29.78200000  *  54.32000000  *
   675       O(ATOM    675  O   ARG A  43)   68.76800000  *  29.79300000  *  53.14700000  *
   676       N(ATOM    676  N   CYS A  44)   68.92000000  *  30.63300000  *  55.20900000  *
   677       H(ATOM    677  H   CYS A  44)   68.55400000  *  30.61600000  *  56.15100000  *
   678       C(ATOM    678  CA  CYS A  44)   69.90500000  *  31.66200000  *  54.84900000  *
   679       H(ATOM    679  HA  CYS A  44)   69.44600000  *  32.33500000  *  54.12600000  *
   680       C(ATOM    680  CB  CYS A  44)   70.26100000  *  32.48500000  *  56.08900000  *
   681       H(ATOM    681 HB2  CYS A  44)   70.43500000  *  31.83800000  *  56.94900000  *
   682       H(ATOM    682 HB3  CYS A  44)   71.16400000  *  33.06200000  *  55.89300000  *
   683       S(ATOM    683  SG  CYS A  44)   68.90800000  *  33.63500000  *  56.42800000  *
   684       H(ATOM    684  HG  CYS A  44)   69.59700000  *  34.37300000  *  57.30300000  *
   685       C(ATOM    685  C   CYS A  44)   71.18900000  *  31.14300000  *  54.17200000  *
   686       O(ATOM    686  O   CYS A  44)   71.80200000  *  31.90900000  *  53.42300000  *
   687       N(ATOM    687  N   LYS A  45)   71.58100000  *  29.87100000  *  54.35700000  *
   688       H(ATOM    688  H   LYS A  45)   71.00900000  *  29.26100000  *  54.92400000  *
   689       C(ATOM    689  CA  LYS A  45)   72.74300000  *  29.29700000  *  53.64800000  *
   690       H(ATOM    690  HA  LYS A  45)   73.62800000  *  29.89000000  *  53.87900000  *
   691       C(ATOM    691  CB  LYS A  45)   73.01200000  *  27.83500000  *  54.05400000  *
   692       H(ATOM    692 HB2  LYS A  45)   72.08600000  *  27.26100000  *  54.05300000  *
   693       H(ATOM    693 HB3  LYS A  45)   73.65500000  *  27.40000000  *  53.29000000  *
   694       C(ATOM    694  CG  LYS A  45)   73.75800000  *  27.66100000  *  55.38800000  *
   695       H(ATOM    695 HG2  LYS A  45)   74.33200000  *  26.73600000  *  55.33400000  *
   696       H(ATOM    696 HG3  LYS A  45)   74.46400000  *  28.47900000  *  55.52800000  *
   697       C(ATOM    697  CD  LYS A  45)   72.82100000  *  27.56200000  *  56.59300000  *
   698       H(ATOM    698 HD2  LYS A  45)   72.25400000  *  28.48600000  *  56.70300000  *
   699       H(ATOM    699 HD3  LYS A  45)   72.13800000  *  26.72700000  *  56.43300000  *
   700       C(ATOM    700  CE  LYS A  45)   73.62900000  *  27.30300000  *  57.86300000  *
   701       H(ATOM    701 HE2  LYS A  45)   74.27800000  *  26.44400000  *  57.69600000  *
   702       H(ATOM    702 HE3  LYS A  45)   74.25900000  *  28.16900000  *  58.06700000  *
   703       N(ATOM    703  NZ  LYS A  45)   72.74200000  *  27.02800000  *  59.01400000  *
   704       H(ATOM    704 HZ1  LYS A  45)   72.20200000  *  26.19000000  *  58.85300000  *
   705       H(ATOM    705 HZ2  LYS A  45)   73.30100000  *  26.81900000  *  59.82900000  *
   706       H(ATOM    706 HZ3  LYS A  45)   72.10500000  *  27.79100000  *  59.19200000  *
   707       C(ATOM    707  C   LYS A  45)   72.59400000  *  29.37400000  *  52.12800000  *
   708       O(ATOM    708  O   LYS A  45)   73.56900000  *  29.63800000  *  51.43000000  *
   709       N(ATOM    709  N   ASP A  46)   71.39900000  *  29.13400000  *  51.59400000  *
   710       H(ATOM    710  H   ASP A  46)   70.62500000  *  28.91700000  *  52.20600000  *
   711       C(ATOM    711  CA  ASP A  46)   71.18900000  *  29.10400000  *  50.14000000  *
   712       H(ATOM    712  HA  ASP A  46)   72.07900000  *  28.69600000  *  49.66300000  *
   713       C(ATOM    713  CB  ASP A  46)   70.04200000  *  28.16000000  *  49.77900000  *
   714       H(ATOM    714 HB2  ASP A  46)   69.11600000  *  28.55700000  *  50.19400000  *
   715       H(ATOM    715 HB3  ASP A  46)   69.94700000  *  28.12400000  *  48.69400000  *
   716       C(ATOM    716  CG  ASP A  46)   70.25800000  *  26.73900000  *  50.29900000  *
   717       O(ATOM    717 OD1  ASP A  46)   71.42900000  *  26.34400000  *  50.53000000  *
   718       O(ATOM    718 OD2  ASP A  46)   69.23800000  *  26.04200000  *  50.48500000  *
   719       C(ATOM    719  C   ASP A  46)   71.00200000  *  30.49800000  *  49.54400000  *
   720       O(ATOM    720  O   ASP A  46)   71.46700000  *  30.74000000  *  48.43400000  *
   721       N(ATOM    721  N   ILE A  47)   70.42700000  *  31.43800000  *  50.30500000  *
   722       H(ATOM    722  H   ILE A  47)   70.07000000  *  31.15400000  *  51.20600000  *
   723       C(ATOM    723  CA  ILE A  47)   70.49000000  *  32.87600000  *  49.98900000  *
   724       H(ATOM    724  HA  ILE A  47)   69.98200000  *  33.03200000  *  49.03800000  *
   725       C(ATOM    725  CB  ILE A  47)   69.78700000  *  33.74600000  *  51.06100000  *
   726       H(ATOM    726  HB  ILE A  47)   70.34800000  *  33.66500000  *  51.99200000  *
   727       C(ATOM    727 CG2  ILE A  47)   69.79500000  *  35.22600000  *  50.62900000  *
   728       H(ATOM    728 HG21 ILE A  47)   69.19100000  *  35.35700000  *  49.73100000  *
   729       H(ATOM    729 HG22 ILE A  47)   69.40200000  *  35.86000000  *  51.42500000  *
   730       H(ATOM    730 HG23 ILE A  47)   70.81100000  *  35.56200000  *  50.42200000  *
   731       C(ATOM    731 CG1  ILE A  47)   68.34600000  *  33.26400000  *  51.33500000  *
   732       H(ATOM    732 HG12 ILE A  47)   67.77200000  *  33.28300000  *  50.40900000  *
   733       H(ATOM    733 HG13 ILE A  47)   68.38000000  *  32.23500000  *  51.69300000  *
   734       C(ATOM    734 CD1  ILE A  47)   67.60300000  *  34.08400000  *  52.39800000  *
   735       H(ATOM    735 HD11 ILE A  47)   67.33500000  *  35.06400000  *  52.00500000  *
   736       H(ATOM    736 HD12 ILE A  47)   66.68800000  *  33.56400000  *  52.67900000  *
   737       H(ATOM    737 HD13 ILE A  47)   68.22600000  *  34.20300000  *  53.28500000  *
   738       C(ATOM    738  C   ILE A  47)   71.95200000  *  33.30300000  *  49.79400000  *
   739       O(ATOM    739  O   ILE A  47)   72.29700000  *  33.88000000  *  48.76600000  *
   740       N(ATOM    740  N   SER A  48)   72.81200000  *  32.99700000  *  50.77200000  *
   741       H(ATOM    741  H   SER A  48)   72.45100000  *  32.51700000  *  51.58400000  *
   742       C(ATOM    742  CA  SER A  48)   74.24600000  *  33.31300000  *  50.74700000  *
   743       H(ATOM    743  HA  SER A  48)   74.35600000  *  34.39700000  *  50.76300000  *
   744       C(ATOM    744  CB  SER A  48)   74.89600000  *  32.75700000  *  52.01700000  *
   745       H(ATOM    745 HB2  SER A  48)   74.26000000  *  32.99400000  *  52.87100000  *
   746       H(ATOM    746 HB3  SER A  48)   74.99700000  *  31.67400000  *  51.95200000  *
   747       O(ATOM    747  OG  SER A  48)   76.16100000  *  33.33600000  *  52.22800000  *
   748       H(ATOM    748  HG  SER A  48)   76.25000000  *  33.44300000  *  53.17800000  *
   749       C(ATOM    749  C   SER A  48)   74.94600000  *  32.80300000  *  49.47700000  *
   750       O(ATOM    750  O   SER A  48)   75.50800000  *  33.59500000  *  48.71700000  *
   751       N(ATOM    751  N   SER A  49)   74.84600000  *  31.49700000  *  49.19900000  *
   752       H(ATOM    752  H   SER A  49)   74.41800000  *  30.89200000  *  49.88500000  *
   753       C(ATOM    753  CA  SER A  49)   75.39100000  *  30.86300000  *  47.98800000  *
   754       H(ATOM    754  HA  SER A  49)   76.46900000  *  31.02400000  *  47.97100000  *
   755       C(ATOM    755  CB  SER A  49)   75.15000000  *  29.35000000  *  48.02400000  *
   756       H(ATOM    756 HB2  SER A  49)   74.08000000  *  29.15500000  *  48.08800000  *
   757       H(ATOM    757 HB3  SER A  49)   75.54200000  *  28.89400000  *  47.11600000  *
   758       O(ATOM    758  OG  SER A  49)   75.80000000  *  28.78700000  *  49.14700000  *
   759       H(ATOM    759  HG  SER A  49)   75.31800000  *  28.00300000  *  49.42000000  *
   760       C(ATOM    760  C   SER A  49)   74.82800000  *  31.43700000  *  46.68100000  *
   761       O(ATOM    761  O   SER A  49)   75.59200000  *  31.75600000  *  45.77200000  *
   762       N(ATOM    762  N   ALA A  50)   73.50300000  *  31.57200000  *  46.56400000  *
   763       H(ATOM    763  H   ALA A  50)   72.91000000  *  31.31200000  *  47.34000000  *
   764       C(ATOM    764  CA  ALA A  50)   72.85300000  *  32.07800000  *  45.35600000  *
   765       H(ATOM    765  HA  ALA A  50)   73.18100000  *  31.46800000  *  44.51400000  *
   766       C(ATOM    766  CB  ALA A  50)   71.33800000  *  31.91000000  *  45.50400000  *
   767       H(ATOM    767 HB1  ALA A  50)   70.98200000  *  32.47700000  *  46.36400000  *
   768       H(ATOM    768 HB2  ALA A  50)   70.84700000  *  32.27800000  *  44.60300000  *
   769       H(ATOM    769 HB3  ALA A  50)   71.09200000  *  30.85700000  *  45.64000000  *
   770       C(ATOM    770  C   ALA A  50)   73.23500000  *  33.53200000  *  45.03200000  *
   771       O(ATOM    771  O   ALA A  50)   73.56800000  *  33.84600000  *  43.88800000  *
   772       N(ATOM    772  N   LEU A  51)   73.22400000  *  34.41900000  *  46.03600000  *
   773       H(ATOM    773  H   LEU A  51)   72.95300000  *  34.10700000  *  46.95700000  *
   774       C(ATOM    774  CA  LEU A  51)   73.64700000  *  35.81100000  *  45.86400000  *
   775       H(ATOM    775  HA  LEU A  51)   73.15800000  *  36.19800000  *  44.97000000  *
   776       C(ATOM    776  CB  LEU A  51)   73.19500000  *  36.68000000  *  47.05300000  *
   777       H(ATOM    777 HB2  LEU A  51)   73.66900000  *  36.30300000  *  47.95900000  *
   778       H(ATOM    778 HB3  LEU A  51)   73.56100000  *  37.69100000  *  46.87800000  *
   779       C(ATOM    779  CG  LEU A  51)   71.66900000  *  36.75200000  *  47.28300000  *
   780       H(ATOM    780  HG  LEU A  51)   71.28500000  *  35.77100000  *  47.56400000  *
   781       C(ATOM    781 CD1  LEU A  51)   71.36600000  *  37.72800000  *  48.42000000  *
   782       H(ATOM    782 HD11 LEU A  51)   71.62500000  *  38.74300000  *  48.11700000  *
   783       H(ATOM    783 HD12 LEU A  51)   70.30400000  *  37.68400000  *  48.66300000  *
   784       H(ATOM    784 HD13 LEU A  51)   71.94200000  *  37.45300000  *  49.30300000  *
   785       C(ATOM    785 CD2  LEU A  51)   70.88500000  *  37.21500000  *  46.05600000  *
   786       H(ATOM    786 HD21 LEU A  51)   70.95600000  *  36.45800000  *  45.27500000  *
   787       H(ATOM    787 HD22 LEU A  51)   69.83300000  *  37.34000000  *  46.31200000  *
   788       H(ATOM    788 HD23 LEU A  51)   71.28400000  *  38.15700000  *  45.67800000  *
   789       C(ATOM    789  C   LEU A  51)   75.15500000  *  35.93800000  *  45.58200000  *
   790       O(ATOM    790  O   LEU A  51)   75.54200000  *  36.83500000  *  44.83600000  *
   791       N(ATOM    791  N   ARG A  52)   75.99700000  *  35.00900000  *  46.06700000  *
   792       H(ATOM    792  H   ARG A  52)   75.62600000  *  34.31600000  *  46.70200000  *
   793       C(ATOM    793  CA  ARG A  52)   77.43800000  *  34.95200000  *  45.73800000  *
   794       H(ATOM    794  HA  ARG A  52)   77.86800000  *  35.92800000  *  45.96400000  *
   795       C(ATOM    795  CB  ARG A  52)   78.17100000  *  33.87500000  *  46.57100000  *
   796       H(ATOM    796 HB2  ARG A  52)   77.47100000  *  33.12700000  *  46.94500000  *
   797       H(ATOM    797 HB3  ARG A  52)   78.90000000  *  33.36200000  *  45.94400000  *
   798       C(ATOM    798  CG  ARG A  52)   78.92100000  *  34.51200000  *  47.74500000  *
   799       H(ATOM    799 HG2  ARG A  52)   79.50400000  *  35.35200000  *  47.36700000  *
   800       H(ATOM    800 HG3  ARG A  52)   78.19200000  *  34.88600000  *  48.46400000  *
   801       C(ATOM    801  CD  ARG A  52)   79.88600000  *  33.54300000  *  48.44500000  *
   802       H(ATOM    802 HD2  ARG A  52)   79.31000000  *  32.77200000  *  48.95600000  *
   803       H(ATOM    803 HD3  ARG A  52)   80.53100000  *  33.07600000  *  47.70100000  *
   804       N(ATOM    804  NE  ARG A  52)   80.71800000  *  34.28700000  *  49.40800000  *
   805       H(ATOM    805  HE  ARG A  52)   80.66500000  *  35.29300000  *  49.34400000  *
   806       C(ATOM    806  CZ  ARG A  52)   81.33700000  *  33.82300000  *  50.47900000  *
   807       N(ATOM    807 NH1  ARG A  52)   81.47500000  *  32.56200000  *  50.76900000  *
   808       H(ATOM    808 HH11 ARG A  52)   81.24300000  *  31.83400000  *  50.10800000  *
   809       H(ATOM    809 HH12 ARG A  52)   81.85500000  *  32.31600000  *  51.67200000  *
   810       N(ATOM    810 NH2  ARG A  52)   81.82200000  *  34.64900000  *  51.34800000  *
   811       H(ATOM    811 HH21 ARG A  52)   81.57700000  *  35.62900000  *  51.32300000  *
   812       H(ATOM    812 HH22 ARG A  52)   82.10100000  *  34.27800000  *  52.24500000  *
   813       C(ATOM    813  C   ARG A  52)   77.74200000  *  34.75900000  *  44.24800000  *
   814       O(ATOM    814  O   ARG A  52)   78.86900000  *  35.02700000  *  43.84200000  *
   815       N(ATOM    815  N   VAL A  53)   76.77600000  *  34.31700000  *  43.43800000  *
   816       H(ATOM    816  H   VAL A  53)   75.88900000  *  34.06800000  *  43.85300000  *
   817       C(ATOM    817  CA  VAL A  53)   76.94000000  *  34.16600000  *  41.97900000  *
   818       H(ATOM    818  HA  VAL A  53)   77.91900000  *  34.55100000  *  41.69400000  *
   819       C(ATOM    819  CB  VAL A  53)   76.92900000  *  32.67500000  *  41.57100000  *
   820       H(ATOM    820  HB  VAL A  53)   77.15000000  *  32.61900000  *  40.50600000  *
   821       C(ATOM    821 CG1  VAL A  53)   78.01900000  *  31.87400000  *  42.29300000  *
   822       H(ATOM    822 HG11 VAL A  53)   77.79500000  *  31.79900000  *  43.35700000  *
   823       H(ATOM    823 HG12 VAL A  53)   78.07300000  *  30.86800000  *  41.87500000  *
   824       H(ATOM    824 HG13 VAL A  53)   78.98400000  *  32.36500000  *  42.16200000  *
   825       C(ATOM    825 CG2  VAL A  53)   75.57700000  *  31.99000000  *  41.80300000  *
   826       H(ATOM    826 HG21 VAL A  53)   74.79500000  *  32.50600000  *  41.24600000  *
   827       H(ATOM    827 HG22 VAL A  53)   75.62200000  *  30.95500000  *  41.46400000  *
   828       H(ATOM    828 HG23 VAL A  53)   75.33000000  *  31.99700000  *  42.86500000  *
   829       C(ATOM    829  C   VAL A  53)   75.93400000  *  34.99100000  *  41.16100000  *
   830       O(ATOM    830  O   VAL A  53)   75.83400000  *  34.78500000  *  39.94800000  *
   831       N(ATOM    831  N   ASN A  54)   75.24500000  *  35.96400000  *  41.77100000  *
   832       H(ATOM    832  H   ASN A  54)   75.42900000  *  36.13500000  *  42.75000000  *
   833       C(ATOM    833  CA  ASN A  54)   74.28400000  *  36.85700000  *  41.11000000  *
   834       H(ATOM    834  HA  ASN A  54)   73.84000000  *  36.32900000  *  40.26700000  *
   835       C(ATOM    835  CB  ASN A  54)   73.13700000  *  37.16800000  *  42.09700000  *
   836       H(ATOM    836 HB2  ASN A  54)   72.68400000  *  36.22900000  *  42.41500000  *
   837       H(ATOM    837 HB3  ASN A  54)   73.54300000  *  37.66300000  *  42.98000000  *
   838       C(ATOM    838  CG  ASN A  54)   72.04700000  *  38.06900000  *  41.52300000  *
   839       O(ATOM    839 OD1  ASN A  54)   72.28200000  *  38.93000000  *  40.69100000  *
   840       N(ATOM    840 ND2  ASN A  54)   70.81900000  *  37.92000000  *  41.95300000  *
   841       H(ATOM    841 HD21 ASN A  54)   70.13500000  *  38.59300000  *  41.63900000  *
   842       H(ATOM    842 HD22 ASN A  54)   70.58200000  *  37.16500000  *  42.58100000  *
   843       C(ATOM    843  C   ASN A  54)   74.98600000  *  38.13900000  *  40.59100000  *
   844       O(ATOM    844  O   ASN A  54)   75.43900000  *  38.94700000  *  41.40200000  *
   845       N(ATOM    845  N   PRO A  55)   75.05900000  *  38.37500000  *  39.26300000  *
   846       C(ATOM    846  CD  PRO A  55)   74.65000000  *  37.47300000  *  38.19100000  *
   847       H(ATOM    847 HD2  PRO A  55)   73.56600000  *  37.36800000  *  38.15400000  *
   848       H(ATOM    848 HD3  PRO A  55)   75.11900000  *  36.50000000  *  38.33400000  *
   849       C(ATOM    849  CG  PRO A  55)   75.17500000  *  38.08000000  *  36.88800000  *
   850       H(ATOM    850 HG2  PRO A  55)   74.40300000  *  38.69700000  *  36.42900000  *
   851       H(ATOM    851 HG3  PRO A  55)   75.51700000  *  37.31300000  *  36.19300000  *
[...]
  8737       H(ATOM   8737 HB3  PRO B 572)   29.15200000  *  37.06000000  *  64.61000000  *
  8738       C(ATOM   8738  CA  PRO B 572)   28.97800000  *  36.90300000  *  62.47000000  *
  8739       H(ATOM   8739  HA  PRO B 572)   28.06800000  *  37.48200000  *  62.62700000  *
  8740       C(ATOM   8740  C   PRO B 572)   29.73100000  *  37.45900000  *  61.25000000  *
  8741       O(ATOM   8741  O   PRO B 572)   30.50000000  *  36.73600000  *  60.61700000  *
  8742       N(ATOM   8742  N   VAL B 573)   29.51800000  *  38.73500000  *  60.91800000  *
  8743       H(ATOM   8743  H   VAL B 573)   28.82400000  *  39.23800000  *  61.45200000  *
  8744       C(ATOM   8744  CA  VAL B 573)   30.03700000  *  39.36500000  *  59.68200000  *
  8745       H(ATOM   8745  HA  VAL B 573)   30.88100000  *  38.77700000  *  59.32000000  *
  8746       C(ATOM   8746  CB  VAL B 573)   28.97200000  *  39.34100000  *  58.55600000  *
  8747       H(ATOM   8747  HB  VAL B 573)   29.41400000  *  39.77300000  *  57.65900000  *
  8748       C(ATOM   8748 CG1  VAL B 573)   28.54100000  *  37.91500000  *  58.18700000  *
  8749       H(ATOM   8749 HG11 VAL B 573)   27.97600000  *  37.46200000  *  59.00200000  *
  8750       H(ATOM   8750 HG12 VAL B 573)   27.90700000  *  37.94300000  *  57.30100000  *
  8751       H(ATOM   8751 HG13 VAL B 573)   29.42100000  *  37.30600000  *  57.98100000  *
  8752       C(ATOM   8752 CG2  VAL B 573)   27.71200000  *  40.14900000  *  58.89300000  *
  8753       H(ATOM   8753 HG21 VAL B 573)   27.97500000  *  41.18800000  *  59.09000000  *
  8754       H(ATOM   8754 HG22 VAL B 573)   27.03000000  *  40.11800000  *  58.04400000  *
  8755       H(ATOM   8755 HG23 VAL B 573)   27.20800000  *  39.72800000  *  59.76300000  *
  8756       C(ATOM   8756  C   VAL B 573)   30.58900000  *  40.79000000  *  59.87800000  *
  8757       O(ATOM   8757  O   VAL B 573)   30.92300000  *  41.45200000  *  58.90000000  *
  8758       N(ATOM   8758  N   HIE B 574)   30.74200000  *  41.25600000  *  61.12300000  *
  8759       H(ATOM   8759  H   HIE B 574)   30.49600000  *  40.64100000  *  61.88600000  *
  8760       C(ATOM   8760  CA  HIE B 574)   31.20900000  *  42.60500000  *  61.49800000  *
  8761       H(ATOM   8761  HA  HIE B 574)   32.17200000  *  42.79500000  *  61.02300000  *
  8762       C(ATOM   8762  CB  HIE B 574)   30.19700000  *  43.65800000  *  60.99700000  *
  8763       H(ATOM   8763 HB2  HIE B 574)   30.22000000  *  43.70100000  *  59.90800000  *
  8764       H(ATOM   8764 HB3  HIE B 574)   29.19700000  *  43.34400000  *  61.29600000  *
  8765       C(ATOM   8765  CG  HIE B 574)   30.39300000  *  45.05200000  *  61.52900000  *
  8766       N(ATOM   8766 ND1  HIE B 574)   29.89700000  *  45.52400000  *  62.74500000  *
  8767       C(ATOM   8767 CE1  HIE B 574)   30.27300000  *  46.80900000  *  62.81800000  *
  8768       H(ATOM   8768 HE1  HIE B 574)   30.03200000  *  47.47200000  *  63.63600000  *
  8769       N(ATOM   8769 NE2  HIE B 574)   30.98200000  *  47.15500000  *  61.73100000  *
  8770       H(ATOM   8770 HE2  HIE B 574)   31.37300000  *  48.06900000  *  61.55400000  *
  8771       C(ATOM   8771 CD2  HIE B 574)   31.06700000  *  46.05700000  *  60.90300000  *
  8772       H(ATOM   8772 HD2  HIE B 574)   31.53900000  *  46.00000000  *  59.93400000  *
  8773       C(ATOM   8773  C   HIE B 574)   31.39600000  *  42.70300000  *  63.02200000  *
  8774       O(ATOM   8774  O   HIE B 574)   30.67300000  *  42.03400000  *  63.75600000  *
  8775       N(ATOM   8775  N   LEU B 575)   32.34600000  *  43.52600000  *  63.48900000  *
  8776       H(ATOM   8776  H   LEU B 575)   32.88700000  *  44.04400000  *  62.81100000  *
  8777       C(ATOM   8777  CA  LEU B 575)   32.57400000  *  43.88300000  *  64.89900000  *
  8778       H(ATOM   8778  HA  LEU B 575)   31.74200000  *  43.52700000  *  65.50600000  *
  8779       C(ATOM   8779  CB  LEU B 575)   33.87800000  *  43.22100000  *  65.39300000  *
  8780       H(ATOM   8780 HB2  LEU B 575)   33.71500000  *  42.14600000  *  65.46600000  *
  8781       H(ATOM   8781 HB3  LEU B 575)   34.64500000  *  43.39900000  *  64.63900000  *
  8782       C(ATOM   8782  CG  LEU B 575)   34.44800000  *  43.71400000  *  66.73800000  *
  8783       H(ATOM   8783  HG  LEU B 575)   34.56200000  *  44.79800000  *  66.73400000  *
  8784       C(ATOM   8784 CD1  LEU B 575)   33.55900000  *  43.32100000  *  67.91400000  *
  8785       H(ATOM   8785 HD11 LEU B 575)   33.35700000  *  42.25000000  *  67.87900000  *
  8786       H(ATOM   8786 HD12 LEU B 575)   34.05500000  *  43.57600000  *  68.85000000  *
  8787       H(ATOM   8787 HD13 LEU B 575)   32.62200000  *  43.87400000  *  67.85200000  *
  8788       C(ATOM   8788 CD2  LEU B 575)   35.83200000  *  43.10100000  *  66.95500000  *
  8789       H(ATOM   8789 HD21 LEU B 575)   36.51200000  *  43.42900000  *  66.16900000  *
  8790       H(ATOM   8790 HD22 LEU B 575)   36.23300000  *  43.40700000  *  67.92100000  *
  8791       H(ATOM   8791 HD23 LEU B 575)   35.77200000  *  42.01300000  *  66.91100000  *
  8792       C(ATOM   8792  C   LEU B 575)   32.65100000  *  45.40800000  *  65.03700000  *
  8793       O(ATOM   8793  O   LEU B 575)   33.48700000  *  46.05000000  *  64.39100000  *
  8794       N(ATOM   8794  N   ASP B 576)   31.82500000  *  45.98200000  *  65.91300000  *
  8795       H(ATOM   8795  H   ASP B 576)   31.17300000  *  45.39700000  *  66.41700000  *
  8796       C(ATOM   8796  CA  ASP B 576)   31.78400000  *  47.42900000  *  66.13800000  *
  8797       H(ATOM   8797  HA  ASP B 576)   31.74700000  *  47.91600000  *  65.16400000  *
  8798       C(ATOM   8798  CB  ASP B 576)   30.49000000  *  47.81600000  *  66.87300000  *
  8799       H(ATOM   8799 HB2  ASP B 576)   29.64200000  *  47.39800000  *  66.33000000  *
  8800       H(ATOM   8800 HB3  ASP B 576)   30.49800000  *  47.38200000  *  67.87300000  *
  8801       C(ATOM   8801  CG  ASP B 576)   30.29400000  *  49.33400000  *  66.98500000  *
  8802       O(ATOM   8802 OD1  ASP B 576)   31.21500000  *  50.11100000  *  66.63800000  *
  8803       O(ATOM   8803 OD2  ASP B 576)   29.20100000  *  49.76600000  *  67.40700000  *
  8804       C(ATOM   8804  C   ASP B 576)   33.04900000  *  47.94000000  *  66.85600000  *
  8805       O(ATOM   8805  O   ASP B 576)   33.25500000  *  47.73000000  *  68.05300000  *
  8806       N(ATOM   8806  N   GLN B 577)   33.90600000  *  48.63900000  *  66.10900000  *
  8807       H(ATOM   8807  H   GLN B 577)   33.69100000  *  48.74600000  *  65.12800000  *
  8808       C(ATOM   8808  CA  GLN B 577)   35.12800000  *  49.25200000  *  66.63000000  *
  8809       H(ATOM   8809  HA  GLN B 577)   35.62900000  *  48.52100000  *  67.26500000  *
  8810       C(ATOM   8810  CB  GLN B 577)   36.08300000  *  49.61300000  *  65.48200000  *
  8811       H(ATOM   8811 HB2  GLN B 577)   35.65900000  *  50.44000000  *  64.91300000  *
  8812       H(ATOM   8812 HB3  GLN B 577)   37.02600000  *  49.94900000  *  65.91300000  *
  8813       C(ATOM   8813  CG  GLN B 577)   36.37300000  *  48.46000000  *  64.51000000  *
  8814       H(ATOM   8814 HG2  GLN B 577)   35.44900000  *  48.17400000  *  64.00800000  *
  8815       H(ATOM   8815 HG3  GLN B 577)   37.07300000  *  48.81400000  *  63.75300000  *
  8816       C(ATOM   8816  CD  GLN B 577)   36.97900000  *  47.23000000  *  65.16700000  *
  8817       O(ATOM   8817 OE1  GLN B 577)   38.02000000  *  47.28300000  *  65.81000000  *
  8818       N(ATOM   8818 NE2  GLN B 577)   36.36600000  *  46.07900000  *  65.02200000  *
  8819       H(ATOM   8819 HE21 GLN B 577)   36.79800000  *  45.24200000  *  65.38700000  *
  8820       H(ATOM   8820 HE22 GLN B 577)   35.48100000  *  46.04000000  *  64.53800000  *
  8821       C(ATOM   8821  C   GLN B 577)   34.87200000  *  50.49400000  *  67.49900000  *
  8822       O(ATOM   8822  O   GLN B 577)   35.72600000  *  50.83900000  *  68.31300000  *
  8823       N(ATOM   8823  N   SER B 578)   33.73100000  *  51.18200000  *  67.36900000  *
  8824       H(ATOM   8824  H   SER B 578)   32.99700000  *  50.79700000  *  66.79300000  *
  8825       C(ATOM   8825  CA  SER B 578)   33.46600000  *  52.44800000  *  68.08100000  *
  8826       H(ATOM   8826  HA  SER B 578)   34.27300000  *  53.14200000  *  67.84600000  *
  8827       C(ATOM   8827  CB  SER B 578)   32.16300000  *  53.08500000  *  67.58500000  *
  8828       H(ATOM   8828 HB2  SER B 578)   32.07100000  *  54.08200000  *  68.01600000  *
  8829       H(ATOM   8829 HB3  SER B 578)   32.18600000  *  53.17600000  *  66.49900000  *
  8830       O(ATOM   8830  OG  SER B 578)   31.04400000  *  52.31700000  *  67.97400000  *
  8831       H(ATOM   8831  HG  SER B 578)   31.03400000  *  51.51300000  *  67.44900000  *
  8832       C(ATOM   8832  C   SER B 578)   33.44100000  *  52.28100000  *  69.60600000  *
  8833       O(ATOM   8833  O   SER B 578)   33.94600000  *  53.13500000  *  70.33800000  *
  8834       N(ATOM   8834  N   ILE B 579)   32.94600000  *  51.14100000  *  70.09700000  *
  8835       H(ATOM   8835  H   ILE B 579)   32.49400000  *  50.51700000  *  69.44300000  *
  8836       C(ATOM   8836  CA  ILE B 579)   32.98500000  *  50.75400000  *  71.51700000  *
  8837       H(ATOM   8837  HA  ILE B 579)   32.73000000  *  51.63600000  *  72.10400000  *
  8838       C(ATOM   8838  CB  ILE B 579)   31.91200000  *  49.68800000  *  71.83200000  *
  8839       H(ATOM   8839  HB  ILE B 579)   32.00300000  *  49.44700000  *  72.89200000  *
  8840       C(ATOM   8840 CG2  ILE B 579)   30.50400000  *  50.27200000  *  71.61500000  *
  8841       H(ATOM   8841 HG21 ILE B 579)   30.32300000  *  50.46000000  *  70.55700000  *
  8842       H(ATOM   8842 HG22 ILE B 579)   29.74600000  *  49.57800000  *  71.98000000  *
  8843       H(ATOM   8843 HG23 ILE B 579)   30.40000000  *  51.20900000  *  72.16100000  *
  8844       C(ATOM   8844 CG1  ILE B 579)   32.11100000  *  48.38800000  *  71.02600000  *
  8845       H(ATOM   8845 HG12 ILE B 579)   31.76400000  *  48.54200000  *  70.00400000  *
  8846       H(ATOM   8846 HG13 ILE B 579)   33.17100000  *  48.13900000  *  70.99200000  *
  8847       C(ATOM   8847 CD1  ILE B 579)   31.37600000  *  47.18100000  *  71.61700000  *
  8848       H(ATOM   8848 HD11 ILE B 579)   30.30000000  *  47.35600000  *  71.61000000  *
  8849       H(ATOM   8849 HD12 ILE B 579)   31.59200000  *  46.29800000  *  71.01500000  *
  8850       H(ATOM   8850 HD13 ILE B 579)   31.71000000  *  47.00400000  *  72.64000000  *
  8851       C(ATOM   8851  C   ILE B 579)   34.38600000  *  50.33400000  *  71.99900000  *
  8852       O(ATOM   8852  O   ILE B 579)   34.60800000  *  50.22700000  *  73.20400000  *
  8853       N(ATOM   8853  N   PHE B 580)   35.32900000  *  50.04000000  *  71.09600000  *
  8854       H(ATOM   8854  H   PHE B 580)   35.08500000  *  50.11400000  *  70.11800000  *
  8855       C(ATOM   8855  CA  PHE B 580)   36.74500000  *  49.77500000  *  71.41300000  *
  8856       H(ATOM   8856  HA  PHE B 580)   36.84700000  *  49.54300000  *  72.47300000  *
  8857       C(ATOM   8857  CB  PHE B 580)   37.23100000  *  48.54500000  *  70.63100000  *
  8858       H(ATOM   8858 HB2  PHE B 580)   36.96500000  *  48.64600000  *  69.57900000  *
  8859       H(ATOM   8859 HB3  PHE B 580)   38.31900000  *  48.50900000  *  70.68400000  *
  8860       C(ATOM   8860  CG  PHE B 580)   36.69800000  *  47.22800000  *  71.17000000  *
  8861       C(ATOM   8861 CD1  PHE B 580)   37.37100000  *  46.58300000  *  72.22800000  *
  8862       H(ATOM   8862 HD1  PHE B 580)   38.28700000  *  47.00300000  *  72.61500000  *
  8863       C(ATOM   8863 CE1  PHE B 580)   36.86000000  *  45.39000000  *  72.77200000  *
  8864       H(ATOM   8864 HE1  PHE B 580)   37.38500000  *  44.89700000  *  73.57700000  *
  8865       C(ATOM   8865  CZ  PHE B 580)   35.67500000  *  44.83400000  *  72.26200000  *
  8866       H(ATOM   8866  HZ  PHE B 580)   35.28600000  *  43.91900000  *  72.68500000  *
  8867       C(ATOM   8867 CE2  PHE B 580)   35.01000000  *  45.46400000  *  71.19500000  *
  8868       H(ATOM   8868 HE2  PHE B 580)   34.10800000  *  45.03500000  *  70.78500000  *
  8869       C(ATOM   8869 CD2  PHE B 580)   35.52500000  *  46.65300000  *  70.64500000  *
  8870       H(ATOM   8870 HD2  PHE B 580)   35.01800000  *  47.12500000  *  69.81600000  *
  8871       C(ATOM   8871  C   PHE B 580)   37.65700000  *  50.99600000  *  71.17300000  *
  8872       O(ATOM   8872  O   PHE B 580)   38.71500000  *  51.08700000  *  71.78900000  *
  8873       N(ATOM   8873  N   ARG B 581)   37.21900000  *  51.98700000  *  70.38100000  *
  8874       H(ATOM   8874  H   ARG B 581)   36.39700000  *  51.79600000  *  69.82600000  *
  8875       C(ATOM   8875  CA  ARG B 581)   37.88600000  *  53.29000000  *  70.19000000  *
  8876       H(ATOM   8876  HA  ARG B 581)   38.90900000  *  53.10600000  *  69.86400000  *
  8877       C(ATOM   8877  CB  ARG B 581)   37.15200000  *  54.06300000  *  69.07300000  *
  8878       H(ATOM   8878 HB2  ARG B 581)   37.19600000  *  53.47000000  *  68.16000000  *
  8879       H(ATOM   8879 HB3  ARG B 581)   36.10300000  *  54.18700000  *  69.34500000  *
  8880       C(ATOM   8880  CG  ARG B 581)   37.73900000  *  55.45500000  *  68.78900000  *
  8881       H(ATOM   8881 HG2  ARG B 581)   37.50100000  *  56.11200000  *  69.62600000  *
  8882       H(ATOM   8882 HG3  ARG B 581)   38.82300000  *  55.38000000  *  68.70800000  *
  8883       C(ATOM   8883  CD  ARG B 581)   37.17600000  *  56.08600000  *  67.50400000  *
  8884       H(ATOM   8884 HD2  ARG B 581)   36.11100000  *  55.86900000  *  67.42300000  *
  8885       H(ATOM   8885 HD3  ARG B 581)   37.28400000  *  57.16800000  *  67.58600000  *
  8886       N(ATOM   8886  NE  ARG B 581)   37.91200000  *  55.63800000  *  66.30500000  *
  8887       H(ATOM   8887  HE  ARG B 581)   38.88700000  *  55.89500000  *  66.24300000  *
  8888       C(ATOM   8888  CZ  ARG B 581)   37.45500000  *  54.91900000  *  65.29900000  *
  8889       N(ATOM   8889 NH1  ARG B 581)   36.20700000  *  54.62200000  *  65.11000000  *
  8890       H(ATOM   8890 HH11 ARG B 581)   35.55600000  *  55.36300000  *  65.33000000  *
  8891       H(ATOM   8891 HH12 ARG B 581)   35.99700000  *  54.05800000  *  64.29900000  *
  8892       N(ATOM   8892 NH2  ARG B 581)   38.28400000  *  54.47500000  *  64.41100000  *
  8893       H(ATOM   8893 HH21 ARG B 581)   39.24000000  *  54.80100000  *  64.41600000  *
  8894       H(ATOM   8894 HH22 ARG B 581)   37.92500000  *  53.89800000  *  63.66400000  *
  8895       C(ATOM   8895  C   ARG B 581)   38.01400000  *  54.07900000  *  71.50200000  *
  8896       O(ATOM   8896  O   ARG B 581)   39.00900000  *  54.78100000  *  71.68900000  *
  8897       N(ATOM   8897  N   ARG B 582)   37.06000000  *  53.90800000  *  72.42600000  *
  8898       H(ATOM   8898  H   ARG B 582)   36.26500000  *  53.34800000  *  72.15600000  *
  8899       C(ATOM   8899  CA  ARG B 582)   37.13400000  *  54.37500000  *  73.82200000  *
  8900       H(ATOM   8900  HA  ARG B 582)   38.18300000  *  54.50600000  *  74.09000000  *
  8901       C(ATOM   8901  CB  ARG B 582)   36.46800000  *  55.76500000  *  73.93200000  *
  8902       H(ATOM   8902 HB2  ARG B 582)   36.72300000  *  56.34200000  *  73.04300000  *
  8903       H(ATOM   8903 HB3  ARG B 582)   35.38200000  *  55.66600000  *  73.95100000  *
  8904       C(ATOM   8904  CG  ARG B 582)   36.93300000  *  56.59400000  *  75.14200000  *
  8905       H(ATOM   8905 HG2  ARG B 582)   38.01100000  *  56.74200000  *  75.07500000  *
  8906       H(ATOM   8906 HG3  ARG B 582)   36.45500000  *  57.57200000  *  75.08700000  *
  8907       C(ATOM   8907  CD  ARG B 582)   36.59900000  *  55.96700000  *  76.50100000  *
  8908       H(ATOM   8908 HD2  ARG B 582)   35.52300000  *  55.80600000  *  76.56800000  *
  8909       H(ATOM   8909 HD3  ARG B 582)   37.10800000  *  55.00700000  *  76.59100000  *
  8910       N(ATOM   8910  NE  ARG B 582)   37.04800000  *  56.81700000  *  77.61100000  *
  8911       H(ATOM   8911  HE  ARG B 582)   37.58700000  *  57.64500000  *  77.40000000  *
  8912       C(ATOM   8912  CZ  ARG B 582)   36.86900000  *  56.57300000  *  78.89300000  *
  8913       N(ATOM   8913 NH1  ARG B 582)   36.22200000  *  55.53900000  *  79.33800000  *
  8914       H(ATOM   8914 HH11 ARG B 582)   36.10000000  *  54.74700000  *  78.72400000  *
  8915       H(ATOM   8915 HH12 ARG B 582)   36.18600000  *  55.38300000  *  80.33500000  *
  8916       N(ATOM   8916 NH2  ARG B 582)   37.38600000  *  57.37400000  *  79.77100000  *
  8917       H(ATOM   8917 HH21 ARG B 582)   37.98800000  *  58.10800000  *  79.42400000  *
  8918       H(ATOM   8918 HH22 ARG B 582)   37.34700000  *  57.12900000  *  80.75000000  *
  8919       C(ATOM   8919  C   ARG B 582)   36.51600000  *  53.31800000  *  74.76500000  *
  8920       O(ATOM   8920  O   ARG B 582)   35.28900000  *  53.25800000  *  74.85100000  *
  8921       N(ATOM   8921  N   PRO B 583)   37.32900000  *  52.47900000  *  75.44000000  *
  8922       C(ATOM   8922  CD  PRO B 583)   38.74300000  *  52.26800000  *  75.16600000  *
  8923       H(ATOM   8923 HD2  PRO B 583)   39.33800000  *  52.91600000  *  75.81000000  *
  8924       H(ATOM   8924 HD3  PRO B 583)   38.99100000  *  52.44200000  *  74.11900000  *
  8925       C(ATOM   8925  CG  PRO B 583)   39.00600000  *  50.80600000  *  75.51400000  *
  8926       H(ATOM   8926 HG2  PRO B 583)   40.05200000  *  50.63000000  *  75.76300000  *
  8927       H(ATOM   8927 HG3  PRO B 583)   38.68900000  *  50.16700000  *  74.69000000  *
  8928       C(ATOM   8928  CB  PRO B 583)   38.08800000  *  50.59800000  *  76.71700000  *
  8929       H(ATOM   8929 HB2  PRO B 583)   38.58000000  *  50.97800000  *  77.61300000  *
  8930       H(ATOM   8930 HB3  PRO B 583)   37.82300000  *  49.54900000  *  76.84700000  *
  8931       C(ATOM   8931  CA  PRO B 583)   36.86000000  *  51.45600000  *  76.38700000  *
  8932       H(ATOM   8932  HA  PRO B 583)   36.12800000  *  50.83300000  *  75.87200000  *
  8933       C(ATOM   8933  C   PRO B 583)   36.19800000  *  51.98300000  *  77.67100000  *
  8934       O(ATOM   8934  O   PRO B 583)   35.34500000  *  51.23900000  *  78.20400000  *
  8935       O(ATOM   8935 OXT  PRO B 583)   36.59300000  *  53.05900000  *  78.17600000  *
  8936       N(ATOM   8936 NA+  NA+ X 584)   19.35000000  *  35.52900000  *  48.67200000  *
  8937       N(ATOM   8937 NA+  NA+ X 585)   22.53100000  *  64.10300000  *  64.24500000  *
  8938       N(ATOM   8938 NA+  NA+ X 586)   33.80000000  *  43.64900000  *  47.92900000  *
  8939       N(ATOM   8939 NA+  NA+ X 587)   58.21600000  *  53.91200000  *  73.37000000  *
  8940       N(ATOM   8940 NA+  NA+ X 588)   57.00400000  *  63.17600000  *  51.13200000  *
  8941       N(ATOM   8941 NA+  NA+ X 589)   42.77500000  *  85.55300000  *  55.17400000  *
  8942       N(ATOM   8942 NA+  NA+ X 590)   51.67800000  *  38.50400000  *  49.96000000  *
  8943       N(ATOM   8943 NA+  NA+ X 591)   66.30300000  *  74.61800000  *  78.13200000  *
  8944       N(ATOM   8944 NA+  NA+ X 592)   69.83300000  *  33.16800000  *  67.62200000  *
  8945       N(ATOM   8945 NA+  NA+ X 593)   25.83500000  *  38.73200000  *  48.71700000  *
  8946       N(ATOM   8946 NA+  NA+ X 594)   27.34700000  *  59.56800000  *  66.03000000  *
  8947       N(ATOM   8947 NA+  NA+ X 595)   71.78300000  *  33.71800000  *  32.71300000  *
 

 General Reference for PM7:
 "Optimization of Parameters for Semiempirical Methods VI: More Modifications to the 
 NDDO Approximations and Re-optimization of Parameters", J. J. P. Stewart, J. Mol. Mod., 1:32, 19 (2013)
 https://link.springer.com/article/10.1007/s00894-012-1667-x

           Empirical Formula: C2752 H4474 N814 O866 S41  =  8947 atoms



      MOLECULAR POINT GROUP   :   C1  


      RHF CALCULATION, NO. OF DOUBLY OCCUPIED LEVELS = 12497


          Geometry optimization using L-BFGS
